chemcompute.org
{'UTCtimestamp': '2022-10-04T21:25:21.743384', 'cluster': 'jetstream2', 'clusterJobNumber': '120818', 'status': 'RUNNING', 'nodeList': 'chemcompute-node-2'}
----- GAMESS execution script 'rungms' -----
This job is running on host chemcompute-node-2.novalocal
under operating system Linux at Tue Oct 4 21:25:25 UTC 2022
SLURM has assigned the following compute nodes to this run:
Available scratch disk space (Kbyte units) at beginning of the job is
Filesystem     1K-blocks     Used Available Use% Mounted on
/dev/sda1       62903276 11203684  51699592  18% /
GAMESS temporary binary files will be written to /scratch/120818
GAMESS supplementary output files will be written to /data/slurm/46/460775
Copying input file 460775.inp to your run's scratch directory...
The generated host list is
chemcompute-node-2.novalocal

 Distributed Data Interface kickoff program.
 Initiating 1 compute processes on 1 nodes to run the following command:
 /data/gamess-2019R1-avx2-ddi/gamess.00.x 460775 

          ******************************************************
          *         GAMESS VERSION = 30 JUN 2019 (R1)          *
          *             FROM IOWA STATE UNIVERSITY             *
          * M.W.SCHMIDT, K.K.BALDRIDGE, J.A.BOATZ, S.T.ELBERT, *
          *   M.S.GORDON, J.H.JENSEN, S.KOSEKI, N.MATSUNAGA,   *
          *          K.A.NGUYEN, S.J.SU, T.L.WINDUS,           *
          *       TOGETHER WITH M.DUPUIS, J.A.MONTGOMERY       *
          *         J.COMPUT.CHEM.  14, 1347-1363(1993)        *
          **************** 64 BIT INTEL VERSION ****************

  SINCE 1993, STUDENTS AND POSTDOCS WORKING AT IOWA STATE UNIVERSITY
  AND ALSO IN THEIR VARIOUS JOBS AFTER LEAVING ISU HAVE MADE IMPORTANT
  CONTRIBUTIONS TO THE CODE:
     IVANA ADAMOVIC, CHRISTINE AIKENS, YURI ALEXEEV, POOJA ARORA,
     ANDREY ASADCHEV, ROB BELL, PRADIPTA BANDYOPADHYAY, JONATHAN BENTZ,
     COLLEEN BERTONI, BRETT BODE, KURT BRORSEN, CALEB CARLIN, GALINA CHABAN,
     WEI CHEN, CHEOL HO CHOI, PAUL DAY, ALBERT DEFUSCO, NUWAN DESILVA,
     TIM DUDLEY, DMITRI FEDOROV, ALEX FINDLATER, GRAHAM FLETCHER, 
     MARK FREITAG, KURT GLAESEMANN, ANASTASIA GUNINA,
     DAN KEMP, GRANT MERRILL, NORIYUKI MINEZAWA, JONATHAN MULLIN,
     TAKESHI NAGATA, SEAN NEDD, HEATHER NETZLOFF, BOSILJKA NJEGIC, RYAN OLSON,
     MIKE PAK, BUU PHAM,
     SPENCER PRUITT, LUKE ROSKOP, JIM SHOEMAKER, LYUDMILA SLIPCHENKO,
     TONY SMITH, SAROM SOK LEANG, JIE SONG, TETSUYA TAKETSUGU, SIMON WEBB,
     PENG XU, SOOHAENG YOO, FEDERICO ZAHARIEV

  ADDITIONAL CODE HAS BEEN PROVIDED BY COLLABORATORS IN OTHER GROUPS:
     IOWA STATE UNIVERSITY:
          JOE IVANIC, AARON WEST, LAIMUTIS BYTAUTAS, KLAUS RUEDENBERG
     UNIVERSITY OF TOKYO: KIMIHIKO HIRAO, TAKAHITO NAKAJIMA,
          TAKAO TSUNEDA, MUNEAKI KAMIYA, SUSUMU YANAGISAWA,
          KIYOSHI YAGI, MAHITO CHIBA, SEIKEN TOKURA, NAOAKI KAWAKAMI
     UNIVERSITY OF AARHUS: FRANK JENSEN
     UNIVERSITY OF IOWA: VISVALDAS KAIRYS, HUI LI
     NATIONAL INST. OF STANDARDS AND TECHNOLOGY: WALT STEVENS, DAVID GARMER
     UNIVERSITY OF PISA: BENEDETTA MENNUCCI, JACOPO TOMASI
     UNIVERSITY OF MEMPHIS: HENRY KURTZ, PRAKASHAN KORAMBATH
     UNIVERSITY OF ALBERTA: TOBY ZENG, MARIUSZ KLOBUKOWSKI
     UNIVERSITY OF NEW ENGLAND: MARK SPACKMAN
     MIE UNIVERSITY: HIROAKI UMEDA
     NAT. INST. OF ADVANCED INDUSTRIAL SCIENCE AND TECHNOLOGY: KAZUO KITAURA
     MICHIGAN STATE UNIVERSITY:
          KAROL KOWALSKI, MARTA WLOCH, JEFFREY GOUR, JESSE LUTZ,
          WEI LI, JUN SHEN, J. EMILIANO DEUSTUA, PIOTR PIECUCH
     UNIVERSITY OF MINNESOTA:
          YINAN SHU
     UNIVERSITY OF SILESIA: MONIKA MUSIAL, STANISLAW KUCHARSKI
     FACULTES UNIVERSITAIRES NOTRE-DAME DE LA PAIX:
          OLIVIER QUINET, BENOIT CHAMPAGNE
     UNIVERSITY OF CALIFORNIA - SANTA BARBARA: BERNARD KIRTMAN
     INSTITUTE FOR MOLECULAR SCIENCE:
          KAZUYA ISHIMURA, MICHIO KATOUDA, AND SHIGERU NAGASE
     UNIVERSITY OF NOTRE DAME: ANNA POMOGAEVA, DAN CHIPMAN
     KYUSHU UNIVERSITY:
          HARUYUKI NAKANO,
          FENG LONG GU, JACEK KORCHOWIEC, MARCIN MAKOWSKI, AND YURIKO AOKI,
          HIROTOSHI MORI AND EISAKU MIYOSHI
     PENNSYLVANIA STATE UNIVERSITY:
          TZVETELIN IORDANOV, CHET SWALINA, JONATHAN SKONE,
          SHARON HAMMES-SCHIFFER
     WASEDA UNIVERSITY:
          MASATO KOBAYASHI, TOMOKO AKAMA, TSUGUKI TOUMA,
          TAKESHI YOSHIKAWA, YASUHIRO IKABATA, JUNJI SEINO,
          YUYA NAKAJIMA, HIROMI NAKAI
     NANJING UNIVERSITY: SHUHUA LI
     UNIVERSITY OF NEBRASKA:
          PEIFENG SU, DEJUN SI, NANDUN THELLAMUREGE, YALI WANG, HUI LI
     UNIVERSITY OF ZURICH: ROBERTO PEVERATI, KIM BALDRIDGE
     N. COPERNICUS UNIVERSITY AND JACKSON STATE UNIVERSITY:
          MARIA BARYSZ
     UNIVERSITY OF COPENHAGEN: Jimmy Kromann, CASPER STEINMANN
     TOKYO INSTITUTE OF TECHNOLOGY: HIROYA NAKATA
     NAGOYA UNIVERSITY: YOSHIO NISHIMOTO, STEPHAN IRLE
     MOSCOW STATE UNIVERSITY: VLADIMIR MIRONOV
     A.N.NESMEYANOV INSTITUTE OF ORGANOELEMENT COMPOUNDS OF RUSSIAN ACADEMY OF SCIENCES:
          IGOR S. GERASIMOV

 EXECUTION OF GAMESS BEGUN Tue Oct  4 21:25:25 2022

            ECHO OF THE FIRST FEW INPUT CARDS -
 INPUT CARD>!                                                                               
 INPUT CARD>!   GAMESS Calculation input file                                               
 INPUT CARD>!                                                                               
 INPUT CARD>!                                                                               
 INPUT CARD> $CONTRL SCFTYP=RHF MAXIT=200 RUNTYP=OPTIMIZE                                   
 INPUT CARD>         COORD=UNIQUE MULT=1                                                    
 INPUT CARD>         ICHARG=0                                                               
 INPUT CARD>         DFTTYP=B3LYP                                                           
 INPUT CARD>         MOLPLT=.FALSE. PLTORB=.FALSE.  $END                                    
 INPUT CARD> $SYSTEM TIMLIM=2879 MWORDS=250  $END                                           
 INPUT CARD>                                                                                
 INPUT CARD> $FORCE METHOD=SEMINUM NVIB=2 $END                                              
 INPUT CARD> $STATPT OPTTOL=0.0005 NSTEP=999 $END                                           
 INPUT CARD> $STATPT IHREP=0 HSSEND=.TRUE.  $END                                            
 INPUT CARD>                                                                                
 INPUT CARD> $DFT    METHOD=GRID  NLEB=590  $END                                            
 INPUT CARD>                                                                                
 INPUT CARD> $BASIS  GBASIS=N31 NGAUSS=6                                                    
 INPUT CARD>         NDFUNC=1   NPFUNC=0  $END                                              
 INPUT CARD>                                                                                
 INPUT CARD> $SCF    DIRSCF=.T. $END                                                        
 INPUT CARD> $GUESS  GUESS=HUCKEL  $END                                                     
 INPUT CARD>                                                                                
 INPUT CARD> $DATA                                                                          
 INPUT CARD>                                                                                
 INPUT CARD>  C1                                                                            
 INPUT CARD>O     8.0    -0.44423     1.39614     0.18178                                   
 INPUT CARD>C     6.0    -0.85212     0.27493    -0.08125                                   
 INPUT CARD>C     6.0    -0.00602    -0.94441    -0.07832                                   
 INPUT CARD>C     6.0     1.33638    -0.89272    -0.03944                                   
 INPUT CARD>H     1.0    -1.90866     0.09213    -0.34534                                   
 INPUT CARD>H     1.0    -0.52847    -1.89015    -0.11976                                   
 INPUT CARD>H     1.0     1.87242     0.04895    -0.01001                                   
 INPUT CARD>H     1.0     1.92060    -1.80782    -0.04024                                   
 INPUT CARD> $END                                                                           
 INPUT CARD>                                                                                
 INPUT CARD>                                                                                
 INPUT CARD>! Customizations after this line are persisted when using Do More Calculations  
  250000000 WORDS OF MEMORY AVAILABLE

     BASIS OPTIONS
     -------------
     GBASIS=N31          IGAUSS=       6      POLAR=POPN31  
     NDFUNC=       1     NFFUNC=       0     DIFFSP=       F
     NPFUNC=       0      DIFFS=       F     BASNAM=        


     RUN TITLE
     ---------
                                                                                 

 THE POINT GROUP OF THE MOLECULE IS C1      
 THE ORDER OF THE PRINCIPAL AXIS IS     0

 ATOM      ATOMIC                      COORDINATES (BOHR)
           CHARGE         X                   Y                   Z
 O           8.0    -0.8394729755        2.6383220405        0.3435143900
 C           6.0    -1.6102733087        0.5195423658       -0.1535402365
 C           6.0    -0.0113761504       -1.7846761201       -0.1480033394
 C           6.0     2.5253920155       -1.6869961838       -0.0745307930
 H           1.0    -3.6068444037        0.1741004552       -0.6525979726
 H           1.0    -0.9986634927       -3.5718655757       -0.2263135843
 H           1.0     3.5383607339        0.0925020871       -0.0189161571
 H           1.0     3.6294077320       -3.4162844351       -0.0760425737

          INTERNUCLEAR DISTANCES (ANGS.)
          ------------------------------

                1 O          2 C          3 C          4 C          5 H     

   1 O       0.0000000    1.2217491 *  2.3953819 *  2.9083312 *  2.0304809 *
   2 C       1.2217491 *  0.0000000    1.4841441 *  2.4808641 *  1.1042808 *
   3 C       2.3953819 *  1.4841441 *  0.0000000    1.3439573 *  2.1830607 *
   4 C       2.9083312 *  2.4808641 *  1.3439573 *  0.0000000    3.4049653  
   5 H       2.0304809 *  1.1042808 *  2.1830607 *  3.4049653    0.0000000  
   6 H       3.3011702    2.1894757 *  1.0812472 *  2.1163609 *  2.4259523 *
   7 H       2.6867399 *  2.7348236 *  2.1260214 *  1.0839499 *  3.7961661  
   8 H       3.9883673    3.4680694    2.1115851 *  1.0856895 *  4.2855721  

                6 H          7 H          8 H     

   1 O       3.3011702    2.6867399 *  3.9883673  
   2 C       2.1894757 *  2.7348236 *  3.4680694  
   3 C       1.0812472 *  2.1260214 *  2.1115851 *
   4 C       2.1163609 *  1.0839499 *  1.0856895 *
   5 H       2.4259523 *  3.7961661    4.2855721  
   6 H       0.0000000    3.0881105    2.4517434 *
   7 H       3.0881105    0.0000000    1.8576410 *
   8 H       2.4517434 *  1.8576410 *  0.0000000  

  * ... LESS THAN  3.000


     ATOMIC BASIS SET
     ----------------
 THE CONTRACTED PRIMITIVE FUNCTIONS HAVE BEEN UNNORMALIZED
 THE CONTRACTED BASIS FUNCTIONS ARE NOW NORMALIZED TO UNITY

  SHELL TYPE  PRIMITIVE        EXPONENT          CONTRACTION COEFFICIENT(S)

 O         

      1   S       1          5484.6716600    0.001831074430
      1   S       2           825.2349460    0.013950172200
      1   S       3           188.0469580    0.068445078098
      1   S       4            52.9645000    0.232714335992
      1   S       5            16.8975704    0.470192897984
      1   S       6             5.7996353    0.358520852987

      2   L       7            15.5396162   -0.110777549525    0.070874268231
      2   L       8             3.5999336   -0.148026262701    0.339752839147
      2   L       9             1.0137618    1.130767015354    0.727158577316

      3   L      10             0.2700058    1.000000000000    1.000000000000

      4   D      11             0.8000000    1.000000000000

 C         

      5   S      12          3047.5248800    0.001834737132
      5   S      13           457.3695180    0.014037322813
      5   S      14           103.9486850    0.068842622264
      5   S      15            29.2101553    0.232184443216
      5   S      16             9.2866630    0.467941348435
      5   S      17             3.1639270    0.362311985337

      6   L      18             7.8682723   -0.119332419775    0.068999066591
      6   L      19             1.8812885   -0.160854151696    0.316423960957
      6   L      20             0.5442493    1.143456437840    0.744308290898

      7   L      21             0.1687145    1.000000000000    1.000000000000

      8   D      22             0.8000000    1.000000000000

 C         

      9   S      23          3047.5248800    0.001834737132
      9   S      24           457.3695180    0.014037322813
      9   S      25           103.9486850    0.068842622264
      9   S      26            29.2101553    0.232184443216
      9   S      27             9.2866630    0.467941348435
      9   S      28             3.1639270    0.362311985337

     10   L      29             7.8682723   -0.119332419775    0.068999066591
     10   L      30             1.8812885   -0.160854151696    0.316423960957
     10   L      31             0.5442493    1.143456437840    0.744308290898

     11   L      32             0.1687145    1.000000000000    1.000000000000

     12   D      33             0.8000000    1.000000000000

 C         

     13   S      34          3047.5248800    0.001834737132
     13   S      35           457.3695180    0.014037322813
     13   S      36           103.9486850    0.068842622264
     13   S      37            29.2101553    0.232184443216
     13   S      38             9.2866630    0.467941348435
     13   S      39             3.1639270    0.362311985337

     14   L      40             7.8682723   -0.119332419775    0.068999066591
     14   L      41             1.8812885   -0.160854151696    0.316423960957
     14   L      42             0.5442493    1.143456437840    0.744308290898

     15   L      43             0.1687145    1.000000000000    1.000000000000

     16   D      44             0.8000000    1.000000000000

 H         

     17   S      45            18.7311370    0.033494604338
     17   S      46             2.8253944    0.234726953484
     17   S      47             0.6401217    0.813757326146

     18   S      48             0.1612778    1.000000000000

 H         

     19   S      49            18.7311370    0.033494604338
     19   S      50             2.8253944    0.234726953484
     19   S      51             0.6401217    0.813757326146

     20   S      52             0.1612778    1.000000000000

 H         

     21   S      53            18.7311370    0.033494604338
     21   S      54             2.8253944    0.234726953484
     21   S      55             0.6401217    0.813757326146

     22   S      56             0.1612778    1.000000000000

 H         

     23   S      57            18.7311370    0.033494604338
     23   S      58             2.8253944    0.234726953484
     23   S      59             0.6401217    0.813757326146

     24   S      60             0.1612778    1.000000000000

 TOTAL NUMBER OF BASIS SET SHELLS             =   24
 NUMBER OF CARTESIAN GAUSSIAN BASIS FUNCTIONS =   68
 NUMBER OF ELECTRONS                          =   30
 CHARGE OF MOLECULE                           =    0
 SPIN MULTIPLICITY                            =    1
 NUMBER OF OCCUPIED ORBITALS (ALPHA)          =   15
 NUMBER OF OCCUPIED ORBITALS (BETA )          =   15
 TOTAL NUMBER OF ATOMS                        =    8
 THE NUCLEAR REPULSION ENERGY IS      104.0513443491

 SELECTED MURRAY-HANDY-LAMING RADIAL GRID

 LEGACY BECKE'S FUZZY CELL METHOD

 SELECTED ORIGINAL BECKE'S PARTITION FUNCTION

     LEBEDEV GRID-BASED DFT OPTIONS
     ------------------------------
     DFTTYP=B3LYP   
     NRAD  =      96     NLEB  =     590
     NRAD0 =      24     NLEB0 =     110
     SWOFF =    5.00E-03 (PURE SCF -> DFT)
     SWITCH=    3.00E-04 (COARSE -> TIGHT GRID)
     THRESH=    0.00E+00 GTHRE=    1.00E+00

 GRIMME'S EMPIRICAL DISPERSION CORRECTION= F

     $CONTRL OPTIONS
     ---------------
 SCFTYP=RHF          RUNTYP=OPTIMIZE     EXETYP=RUN     
 MPLEVL=       0     CITYP =NONE         CCTYP =NONE         VBTYP =NONE    
 DFTTYP=B3LYP        TDDFT =NONE    
 MULT  =       1     ICHARG=       0     NZVAR =       0     COORD =UNIQUE  
 PP    =NONE         RELWFN=NONE         LOCAL =NONE         NUMGRD=       F
 ISPHER=      -1     NOSYM =       0     MAXIT =     200     UNITS =ANGS    
 PLTORB=       F     MOLPLT=       F     AIMPAC=       F     FRIEND=        
 NPRINT=       7     IREST =       0     GEOM  =INPUT   
 NORMF =       0     NORMP =       0     ITOL  =      20     ICUT  =       9
 INTTYP=BEST         GRDTYP=BEST         QMTTOL= 1.0E-06

     $SYSTEM OPTIONS
     ---------------
  REPLICATED MEMORY=   250000000 WORDS (ON EVERY NODE).
 DISTRIBUTED MEMDDI=           0 MILLION WORDS IN AGGREGATE,
 MEMDDI DISTRIBUTED OVER   1 PROCESSORS IS           0 WORDS/PROCESSOR.
 TOTAL MEMORY REQUESTED ON EACH PROCESSOR=   250000000 WORDS.
 TIMLIM=        2879.00 MINUTES, OR       2.0 DAYS.
 PARALL= F  BALTYP=  DLB     KDIAG=    0  COREFL= F
 MXSEQ2=     300 MXSEQ3=     150  mem10=         0

          ----------------
          PROPERTIES INPUT
          ----------------

     MOMENTS            FIELD           POTENTIAL          DENSITY
 IEMOM =       1   IEFLD =       0   IEPOT =       0   IEDEN =       0
 WHERE =COMASS     WHERE =NUCLEI     WHERE =NUCLEI     WHERE =NUCLEI  
 OUTPUT=BOTH       OUTPUT=BOTH       OUTPUT=BOTH       OUTPUT=BOTH    
 IEMINT=       0   IEFINT=       0                     IEDINT=       0
                                                       MORB  =       0
          EXTRAPOLATION IN EFFECT
          DIIS IN EFFECT
 ORBITAL PRINTING OPTION: NPREO=     1    68     2     1

     -------------------------------
     INTEGRAL TRANSFORMATION OPTIONS
     -------------------------------
     NWORD  =            0
     CUTOFF = 1.0E-09     MPTRAN =       0
     DIRTRF =       T     AOINTS =DUP     

          ----------------------
          INTEGRAL INPUT OPTIONS
          ----------------------
 NOPK  =       1 NORDER=       0 SCHWRZ=       T

     ------------------------------------------
     THE POINT GROUP IS C1 , NAXIS= 0, ORDER= 1
     ------------------------------------------

     DIMENSIONS OF THE SYMMETRY SUBSPACES ARE
 A   =   68

 ..... DONE SETTING UP THE RUN .....
 STEP CPU TIME =     0.01 TOTAL CPU TIME =          0.0 (      0.0 MIN)
 TOTAL WALL CLOCK TIME=          0.0 SECONDS, CPU UTILIZATION IS    50.00%


          -----------------------------
          STATIONARY POINT LOCATION RUN
          -----------------------------

 OBTAINING INITIAL HESSIAN, HESS=GUESS   
 CARTESIAN COORDINATE OPTIMIZATION USING BADGER'S RULE FORCE CONSTANT GUESS

          PARAMETERS CONTROLLING GEOMETRY SEARCH ARE
          METHOD =QA                  UPHESS =BFGS    
          NNEG   =         0          NFRZ   =         0
          NSTEP  =       999          IFOLOW =         1
          HESS   =GUESS               RESTAR =         F
          IHREP  =         0          HSSEND =         T
          NPRT   =         0          NPUN   =         0
          OPTTOL = 5.000E-04          RMIN   = 1.500E-03
          RMAX   = 1.000E-01          RLIM   = 7.000E-02
          DXMAX  = 3.000E-01          PURIFY =         F
          MOVIE  =         F          TRUPD  =         T
          TRMAX  = 5.000E-01          TRMIN  = 5.000E-02
          ITBMAT =         5          STPT   =         F
          STSTEP = 1.000E-02          PROJCT=          T

 BEGINNING GEOMETRY SEARCH POINT NSERCH=   0 ...

 COORDINATES OF ALL ATOMS ARE (ANGS)
   ATOM   CHARGE       X              Y              Z
 ------------------------------------------------------------
 O           8.0  -0.4442300000   1.3961400000   0.1817800000
 C           6.0  -0.8521200000   0.2749300000  -0.0812500000
 C           6.0  -0.0060200000  -0.9444100000  -0.0783200000
 C           6.0   1.3363800000  -0.8927200000  -0.0394400000
 H           1.0  -1.9086600000   0.0921300000  -0.3453400000
 H           1.0  -0.5284700000  -1.8901500000  -0.1197600000
 H           1.0   1.8724200000   0.0489500000  -0.0100100000
 H           1.0   1.9206000000  -1.8078200000  -0.0402400000

          ********************
          1 ELECTRON INTEGRALS
          ********************
 ...... END OF ONE-ELECTRON INTEGRALS ......
 STEP CPU TIME =     0.00 TOTAL CPU TIME =          0.0 (      0.0 MIN)
 TOTAL WALL CLOCK TIME=          0.0 SECONDS, CPU UTILIZATION IS    33.33%

          -------------
          GUESS OPTIONS
          -------------
          GUESS =HUCKEL            NORB  =       0          NORDER=       0
          MIX   =       F          PRTMO =       F          PUNMO =       F
          TOLZ  = 1.0E-08          TOLE  = 1.0E-05
          SYMDEN=       F          PURIFY=       F

 INITIAL GUESS ORBITALS GENERATED BY HUCKEL   ROUTINE.
 HUCKEL GUESS REQUIRES     42032 WORDS.

 SYMMETRIES FOR INITIAL GUESS ORBITALS FOLLOW.   BOTH SET(S).
    15 ORBITALS ARE OCCUPIED (    4 CORE ORBITALS).
     5=A        6=A        7=A        8=A        9=A       10=A       11=A   
    12=A       13=A       14=A       15=A       16=A       17=A       18=A   
    19=A       20=A       21=A       22=A       23=A       24=A       25=A   
 ...... END OF INITIAL ORBITAL SELECTION ......
 STEP CPU TIME =     0.01 TOTAL CPU TIME =          0.0 (      0.0 MIN)
 TOTAL WALL CLOCK TIME=          0.0 SECONDS, CPU UTILIZATION IS    40.00%

                    ----------------------
                    AO INTEGRAL TECHNOLOGY
                    ----------------------
     S,P,L SHELL ROTATED AXIS INTEGRALS, REPROGRAMMED BY
        KAZUYA ISHIMURA (IMS) AND JOSE SIERRA (SYNSTAR).
     S,P,D,L SHELL ROTATED AXIS INTEGRALS PROGRAMMED BY
        KAZUYA ISHIMURA (INSTITUTE FOR MOLECULAR SCIENCE).
     S,P,D,F,G SHELL TO TOTAL QUARTET ANGULAR MOMENTUM SUM 5,
        ERIC PROGRAM BY GRAHAM FLETCHER (ELORET AND NASA ADVANCED
        SUPERCOMPUTING DIVISION, AMES RESEARCH CENTER).
     S,P,D,F,G,L SHELL GENERAL RYS QUADRATURE PROGRAMMED BY
        MICHEL DUPUIS (PACIFIC NORTHWEST NATIONAL LABORATORY).

          --------------------
          2 ELECTRON INTEGRALS
          --------------------

 DIRECT SCF METHOD SKIPS INTEGRAL STORAGE ON DISK.
 DIRECT TRANSFORMATION SKIPS AO INTEGRAL STORAGE ON DISK.
  ...... END OF TWO-ELECTRON INTEGRALS .....
 STEP CPU TIME =     0.00 TOTAL CPU TIME =          0.0 (      0.0 MIN)
 TOTAL WALL CLOCK TIME=          0.1 SECONDS, CPU UTILIZATION IS    33.33%

          --------------------------
             R-B3LYP SCF CALCULATION
          --------------------------

     NUCLEAR ENERGY =       104.0513443491
     MAXIT =  200     NPUNCH=    2
     EXTRAP=T  DAMP=F  SHIFT=F  RSTRCT=F  DIIS=T  DEM=F  SOSCF=F
         DENSITY MATRIX CONVERGENCE THRESHOLD=  2.00E-05
     COARSE -> FINE DFT GRID SWITCH THRESHOLD=  3.00E-04 (SWITCH IN $DFT)
                   HF -> DFT SWITCH THRESHOLD=  5.00E-03 (SWOFF IN $DFT)
     MEMORY REQUIRED FOR RHF ITERS=    620217 WORDS.

 DIRECT SCF CALCULATION, SCHWRZ=T   FDIFF=T,  DIRTHR=  0.00E+00 NITDIR=10
 SCHWARZ INEQUALITY OVERHEAD:      2344 INTEGRALS, T=        0.00

 DFT CODE IS SWITCHING FROM THE FINE GRID NRAD= 96,  NLEB=  590
                      TO THE COARSE GRID NRAD0= 24, NLEB0=  110

     EXCHANGE FUNCTIONAL   =B88&HFX   
     CORRELATION FUNCTIONAL=LYP88&VWN5
     DFT THRESHOLD         =.883E-08
     GRID CHANGE THRESHOLD =.300E-03
 FOR AN EULER-MACLAURIN QUADRATURE USING  96 RADIAL POINTS:
 SMALLEST GAUSSIAN PRIMITIVE EXPONENT=        0.1612777588 OF TYPE -S-
 ON ATOM NUMBER   5 HAS RADIAL NORMALIZATION=  1.000000
  LARGEST GAUSSIAN PRIMITIVE EXPONENT=     5484.6716600000 OF TYPE -S-
 ON ATOM NUMBER   1 HAS RADIAL NORMALIZATION=  1.000000
 DFT IS SWITCHED OFF, PERFORMING PURE SCF UNTIL SWOFF THRESHOLD IS REACHED.

                                                                                   NONZERO     BLOCKS
 ITER EX DEM     TOTAL ENERGY        E CHANGE  DENSITY CHANGE    DIIS ERROR      INTEGRALS    SKIPPED
          * * *   INITIATING DIIS PROCEDURE   * * *
   1  0  0     -190.2080247300  -190.2080247300   0.287291081   0.390757477        2642423       3613
   2  1  0     -190.6955386114    -0.4875138814   0.139732449   0.123708424        2642182       3935
   3  2  0     -190.7337066934    -0.0381680820   0.067999257   0.075417779        2637470       4423
   4  3  0     -190.7557765849    -0.0220698914   0.010584079   0.008195845        2630175       4852
   5  4  0     -190.7564049598    -0.0006283749   0.006361138   0.002897191        2613765       5554
   6  5  0     -190.7565152756    -0.0001103158   0.002409947   0.001090305        2600876       6102
 CONVERGED TO SWOFF, SO DFT CALCULATION IS NOW SWITCHED ON.
          * * *   INITIATING DIIS PROCEDURE   * * *
   7  6  0     -191.7772423227    -1.0207270470   0.115027968   0.098985516        2642585       3617
   8  7  0     -191.7949060665    -0.0176637439   0.069443069   0.036550151        2638341       4286
   9  8  0     -191.7900706563     0.0048354103   0.055017245   0.055947267        2631208       4718
  10  9  0     -191.7991599285    -0.0090892722   0.009203500   0.010517362        2623639       5075
  11 10  0     -191.7994851524    -0.0003252239   0.000929322   0.000978422        2605028       5859
  12 11  0     -191.7994880241    -0.0000028717   0.000633720   0.000383980        2569190       7226
  13 12  0     -191.7994886556    -0.0000006314   0.000167512   0.000136896        2533321       8390
 DFT CODE IS SWITCHING BACK TO THE FINE GRID
          * * *   INITIATING DIIS PROCEDURE   * * *
  14 13  0     -191.7977835896     0.0017050659   0.003774748   0.001682319        2642854       3572
  15 14  0     -191.7977929792    -0.0000093895   0.001096502   0.000310359        2592343       6602
  16 15  0     -191.7977920222     0.0000009570   0.000676239   0.000617973        2548274       8120
  17 16  0     -191.7977934682    -0.0000014460   0.000062292   0.000073934        2526773       8688
  18 17  0     -191.7977934800    -0.0000000118   0.000024969   0.000018174        2471717      10219
  19 18  0     -191.7977934827    -0.0000000026   0.000006008   0.000004194        2400594      11750
  20 19  0     -191.7977934828    -0.0000000001   0.000003755   0.000002326        2300118      14231

          -----------------
          DENSITY CONVERGED
          -----------------
     TIME TO FORM FOCK OPERATORS=       9.5 SECONDS (       0.5 SEC/ITER)
     FOCK TIME ON FIRST ITERATION=       0.1, LAST ITERATION=       1.1
     TIME TO SOLVE SCF EQUATIONS=       0.1 SECONDS (       0.0 SEC/ITER)

 FINAL R-B3LYP ENERGY IS     -191.7977934828 AFTER  20 ITERATIONS
 DFT EXCHANGE + CORRELATION ENERGY =       -21.1463650686
 TOTAL ELECTRON NUMBER             =        29.9999998472

          ------------
          EIGENVECTORS
          ------------

                      1          2          3          4          5
                  -19.1442   -10.2740   -10.2114   -10.2037    -1.0350
                     A          A          A          A          A   
    1  O  1  S    0.992758  -0.000127  -0.000001   0.000040  -0.194782
    2  O  1  S    0.025671   0.000406   0.000001   0.000152   0.426101
    3  O  1  X   -0.000376   0.000005  -0.000001  -0.000003  -0.052072
    4  O  1  Y   -0.001061   0.000053   0.000012  -0.000031  -0.148759
    5  O  1  Z   -0.000249   0.000001   0.000000  -0.000026  -0.034744
    6  O  1  S    0.013864  -0.002973  -0.000112  -0.001383   0.397542
    7  O  1  X   -0.000441   0.000765  -0.000093  -0.000157  -0.015092
    8  O  1  Y   -0.001503   0.001739   0.000038   0.000419  -0.051623
    9  O  1  Z   -0.000352   0.000473  -0.000005   0.000097  -0.011921
   10  O  1 XX   -0.008065   0.000200   0.000002   0.000183  -0.008130
   11  O  1 YY   -0.007664  -0.000207   0.000001   0.000148   0.007512
   12  O  1 ZZ   -0.008106   0.000380  -0.000025   0.000042  -0.005204
   13  O  1 XY    0.000167  -0.000226   0.000012   0.000027   0.007190
   14  O  1 XZ    0.000043  -0.000092   0.000009   0.000048   0.000386
   15  O  1 YZ    0.000124  -0.000166   0.000006   0.000020   0.004117
   16  C  2  S    0.000006   0.992829  -0.000129  -0.002176  -0.117867
   17  C  2  S    0.000516   0.048719  -0.000179  -0.000352   0.228970
   18  C  2  X    0.000038   0.000331  -0.000080  -0.000168   0.064627
   19  C  2  Y   -0.000022   0.000695   0.000009   0.000221   0.162697
   20  C  2  Z    0.000006   0.000183  -0.000012  -0.000010   0.039185
   21  C  2  S   -0.002833  -0.009179   0.000550   0.005004   0.083990
   22  C  2  X   -0.001632   0.000853   0.000532   0.002169  -0.023206
   23  C  2  Y   -0.002884   0.003522  -0.000229  -0.000950  -0.026591
   24  C  2  Z   -0.000750   0.000647   0.000081   0.000224  -0.008485
   25  C  2 XX   -0.000157  -0.009339   0.000034  -0.000198  -0.012439
   26  C  2 YY   -0.000717  -0.008565   0.000005  -0.000457   0.016489
   27  C  2 ZZ   -0.000068  -0.009633  -0.000073  -0.000131  -0.017410
   28  C  2 XY   -0.000292   0.000326  -0.000031   0.000175   0.015468
   29  C  2 XZ   -0.000074   0.000134   0.000002   0.000019   0.004142
   30  C  2 YZ   -0.000192   0.000280   0.000001   0.000010   0.009759
   31  C  3  S   -0.000018   0.001927   0.052380   0.991375  -0.020102
   32  C  3  S   -0.000068   0.000010   0.002153   0.049609   0.035920
   33  C  3  X   -0.000083   0.000224  -0.000419   0.000099  -0.009011
   34  C  3  Y    0.000003  -0.000248  -0.000028   0.000139   0.027080
   35  C  3  Z   -0.000013   0.000004  -0.000012  -0.000020   0.001581
   36  C  3  S    0.000983   0.002469   0.003351  -0.015808   0.023349
   37  C  3  X    0.001791  -0.002959   0.001957  -0.001383   0.020998
   38  C  3  Y    0.000511   0.000747  -0.000341  -0.002152   0.011803
   39  C  3  Z    0.000222  -0.000185   0.000029  -0.000106   0.003457
   40  C  3 XX    0.000085  -0.000401  -0.000822  -0.009061   0.000593
   41  C  3 YY   -0.000083  -0.000387  -0.000733  -0.009405   0.005905
   42  C  3 ZZ   -0.000040  -0.000132  -0.000629  -0.009610  -0.002498
   43  C  3 XY   -0.000038   0.000207   0.000022  -0.000001  -0.003853
   44  C  3 XZ   -0.000001  -0.000008  -0.000003   0.000024  -0.000265
   45  C  3 YZ   -0.000005  -0.000016  -0.000005  -0.000000   0.000518
   46  C  4  S    0.000005  -0.000035   0.991311  -0.052842  -0.007123
   47  C  4  S    0.000029  -0.000199   0.049154  -0.003150   0.013353
   48  C  4  X    0.000055  -0.000044  -0.000071   0.000361  -0.007834
   49  C  4  Y    0.000025  -0.000065  -0.000051   0.000019   0.003963
   50  C  4  Z    0.000016   0.000005  -0.000026   0.000010   0.000137
   51  C  4  S   -0.001482   0.001847  -0.012702   0.006293  -0.011652
   52  C  4  X    0.000871  -0.001103   0.000930  -0.002271   0.005187
   53  C  4  Y    0.000006   0.000137   0.000195   0.000627   0.001049
   54  C  4  Z   -0.000045  -0.000019   0.000048  -0.000040  -0.000358
   55  C  4 XX   -0.000073   0.000144  -0.009211   0.000144   0.000610
   56  C  4 YY    0.000032  -0.000004  -0.009456   0.000297   0.000288
   57  C  4 ZZ    0.000020  -0.000091  -0.009775   0.000408  -0.000884
   58  C  4 XY   -0.000034   0.000025   0.000015  -0.000056  -0.000805
   59  C  4 XZ    0.000007   0.000002   0.000017  -0.000013   0.000024
   60  C  4 YZ    0.000001  -0.000002   0.000005  -0.000005   0.000101
   61  H  5  S   -0.000060  -0.000230   0.000012  -0.000048   0.028119
   62  H  5  S   -0.000619   0.002502   0.000306   0.000354  -0.016475
   63  H  6  S    0.000127  -0.000221  -0.000096  -0.000401   0.006271
   64  H  6  S    0.000345  -0.000485   0.000005   0.001537   0.005924
   65  H  7  S    0.000103  -0.000104  -0.000343  -0.000121   0.004126
   66  H  7  S   -0.000228   0.000092   0.002081  -0.000522   0.003120
   67  H  8  S    0.000016  -0.000025  -0.000331  -0.000027   0.001683
   68  H  8  S   -0.000093   0.000287   0.002206   0.000022   0.000947

                      6          7          8          9         10
                   -0.7890    -0.6579    -0.5444    -0.5050    -0.4430
                     A          A          A          A          A   
    1  O  1  S    0.043462  -0.057535   0.055338   0.020577  -0.070156
    2  O  1  S   -0.097590   0.134361  -0.125244  -0.045919   0.137379
    3  O  1  X    0.019867   0.019945  -0.101653   0.141668   0.180836
    4  O  1  Y   -0.002211   0.042565  -0.081233  -0.108796   0.312021
    5  O  1  Z    0.003279   0.008434  -0.040079   0.002938   0.101016
    6  O  1  S   -0.109901   0.141055  -0.177768  -0.079049   0.333189
    7  O  1  X    0.006153   0.013514  -0.049277   0.077754   0.095241
    8  O  1  Y   -0.002745   0.031775  -0.044123  -0.057112   0.147397
    9  O  1  Z    0.000703   0.006646  -0.020680   0.002111   0.050366
   10  O  1 XX    0.000653  -0.000118   0.005340  -0.005938  -0.008976
   11  O  1 YY    0.003065  -0.006262   0.006031   0.012407  -0.021963
   12  O  1 ZZ    0.000166   0.001243   0.000144  -0.001143  -0.004518
   13  O  1 XY   -0.001517  -0.003342   0.008878  -0.009087  -0.011714
   14  O  1 XZ   -0.000143  -0.001035   0.003112  -0.002572  -0.003971
   15  O  1 YZ    0.000245  -0.001894   0.003711   0.001349  -0.007035
   16  C  2  S   -0.047513   0.118869  -0.092048  -0.011830   0.031923
   17  C  2  S    0.095044  -0.250208   0.199185   0.030326  -0.080388
   18  C  2  X    0.034676   0.051702  -0.182182   0.274495  -0.006781
   19  C  2  Y   -0.129081   0.173680   0.006258  -0.077130  -0.267721
   20  C  2  Z   -0.014085   0.033206  -0.047341   0.032862  -0.023562
   21  C  2  S    0.077858  -0.203100   0.198691   0.018305  -0.077651
   22  C  2  X    0.015296   0.033576  -0.068769   0.089283  -0.004056
   23  C  2  Y   -0.018416   0.062042  -0.024644  -0.017060  -0.061801
   24  C  2  Z   -0.001149   0.014925  -0.021559   0.008871  -0.000407
   25  C  2 XX    0.005856  -0.004354   0.007547  -0.000013   0.002921
   26  C  2 YY   -0.001181   0.007186  -0.015026  -0.005413   0.002755
   27  C  2 ZZ   -0.004140   0.008515  -0.006226  -0.001108   0.005591
   28  C  2 XY   -0.011177   0.006362   0.003220  -0.004214  -0.002226
   29  C  2 XZ    0.000354  -0.002820   0.003746  -0.001561  -0.000211
   30  C  2 YZ   -0.001828   0.001517  -0.000447  -0.001383  -0.001550
   31  C  3  S   -0.164032   0.053548   0.096051  -0.000321   0.005042
   32  C  3  S    0.321444  -0.108217  -0.197717   0.004574  -0.013171
   33  C  3  X    0.067950   0.213540  -0.009660   0.042485  -0.281191
   34  C  3  Y    0.019035  -0.065517   0.133632   0.299916   0.006328
   35  C  3  Z    0.000183   0.008982  -0.005306   0.014091  -0.009757
   36  C  3  S    0.218118  -0.092190  -0.189052  -0.001508   0.012068
   37  C  3  X   -0.010332   0.050088   0.029286   0.015912  -0.113093
   38  C  3  Y   -0.015109  -0.013719   0.049524   0.093328   0.017987
   39  C  3  Z   -0.002281   0.001696  -0.000131   0.005708  -0.003906
   40  C  3 XX    0.006430   0.006163   0.008470  -0.004422  -0.002556
   41  C  3 YY   -0.001863  -0.009292  -0.003650  -0.001721   0.007257
   42  C  3 ZZ   -0.015889   0.004909   0.007395   0.000598  -0.000182
   43  C  3 XY    0.001562   0.006092  -0.010719  -0.003443   0.003814
   44  C  3 XZ    0.000808  -0.000188   0.000274  -0.000677   0.000353
   45  C  3 YZ    0.000084   0.000247  -0.001506  -0.000107   0.000357
   46  C  4  S   -0.142382  -0.127450  -0.066167   0.006061   0.004954
   47  C  4  S    0.276539   0.254752   0.136433  -0.013832  -0.013839
   48  C  4  X   -0.099654   0.043854   0.217978  -0.059213   0.270068
   49  C  4  Y   -0.003417  -0.016846   0.060474   0.251319   0.116388
   50  C  4  Z   -0.003747   0.001374   0.003896   0.005307   0.009120
   51  C  4  S    0.219926   0.225499   0.140030  -0.014871   0.017474
   52  C  4  X   -0.009366   0.025173   0.088522  -0.018435   0.076535
   53  C  4  Y    0.001897  -0.006015   0.017722   0.101140   0.041820
   54  C  4  Z   -0.000683   0.000709   0.000188   0.002003   0.003986
   55  C  4 XX    0.008468  -0.003191  -0.008836   0.001665  -0.004245
   56  C  4 YY   -0.000329   0.007621   0.013374  -0.002631   0.012814
   57  C  4 ZZ   -0.014761  -0.011989  -0.005491   0.000200  -0.000261
   58  C  4 XY    0.000278   0.000501  -0.002192   0.002363   0.004779
   59  C  4 XZ    0.000877   0.000139   0.000072  -0.000146  -0.000210
   60  C  4 YZ    0.000194   0.000418   0.000089  -0.000115   0.000467
   61  H  5  S    0.027618  -0.122503   0.170543  -0.117726  -0.002476
   62  H  5  S    0.008870  -0.038199   0.087821  -0.084046   0.009827
   63  H  6  S    0.086367  -0.060833  -0.144219  -0.152245   0.076431
   64  H  6  S    0.007580  -0.023529  -0.069291  -0.109972   0.067776
   65  H  7  S    0.070971   0.100340   0.138193   0.091774   0.138928
   66  H  7  S    0.006760   0.034302   0.062677   0.051400   0.125120
   67  H  8  S    0.072667   0.112742   0.097218  -0.134951   0.026521
   68  H  8  S    0.012045   0.038975   0.047134  -0.085002   0.027376

                     11         12         13         14         15
                   -0.4235    -0.3895    -0.3842    -0.2825    -0.2534
                     A          A          A          A          A   
    1  O  1  S   -0.037749   0.006783   0.026754   0.001214   0.000847
    2  O  1  S    0.082703  -0.012435  -0.052045  -0.004303  -0.008112
    3  O  1  X   -0.055111  -0.160990  -0.120118   0.084917   0.528488
    4  O  1  Y    0.311929  -0.078722  -0.162318   0.049097  -0.219342
    5  O  1  Z   -0.036488   0.377494  -0.209798  -0.255695   0.103089
    6  O  1  S    0.132728  -0.037980  -0.124392  -0.005826   0.023716
    7  O  1  X   -0.031616  -0.093590  -0.064936   0.062312   0.372918
    8  O  1  Y    0.180426  -0.043613  -0.086581   0.033508  -0.160348
    9  O  1  Z   -0.020839   0.232828  -0.126739  -0.180257   0.071685
   10  O  1 XX    0.007050   0.006671   0.003309  -0.001974  -0.010379
   11  O  1 YY   -0.022798   0.006497   0.005913  -0.003588   0.009205
   12  O  1 ZZ    0.004173  -0.009179   0.004294   0.004538  -0.003670
   13  O  1 XY    0.001438   0.010394   0.005569  -0.004343  -0.013625
   14  O  1 XZ    0.002748  -0.005671   0.004821   0.004620  -0.004832
   15  O  1 YZ    0.000529  -0.023142   0.012042   0.010381  -0.001534
   16  C  2  S    0.027610   0.008285   0.015752  -0.000608  -0.000127
   17  C  2  S   -0.071840  -0.017128  -0.028072   0.000702  -0.013944
   18  C  2  X   -0.256541  -0.127019   0.012554  -0.013705  -0.126543
   19  C  2  Y   -0.041026   0.025494   0.232934   0.004135   0.055146
   20  C  2  Z   -0.136276   0.323702  -0.078216  -0.041971  -0.018879
   21  C  2  S   -0.039679  -0.037719  -0.088785   0.005537   0.043250
   22  C  2  X   -0.051005  -0.066622  -0.014828   0.006023   0.046647
   23  C  2  Y    0.058774   0.007073   0.063714   0.011809  -0.072760
   24  C  2  Z   -0.044085   0.185507  -0.060938  -0.031282   0.001896
   25  C  2 XX    0.017474  -0.003555  -0.011189   0.004632   0.029491
   26  C  2 YY   -0.002885  -0.002593   0.012702   0.001781  -0.029166
   27  C  2 ZZ    0.002213   0.007501  -0.005092  -0.005058   0.001534
   28  C  2 XY   -0.005765  -0.004950   0.006871   0.005133   0.033636
   29  C  2 XZ   -0.000509   0.008763  -0.004896   0.005007   0.012738
   30  C  2 YZ   -0.003412   0.014397  -0.003363  -0.023609   0.004368
   31  C  3  S   -0.014545  -0.004841  -0.007859   0.002253   0.038503
   32  C  3  S    0.034046   0.007181   0.009717  -0.001745  -0.076571
   33  C  3  X    0.238311   0.018551  -0.103123  -0.002039   0.118412
   34  C  3  Y    0.023230  -0.070726  -0.230489  -0.019938  -0.184399
   35  C  3  Z   -0.037242   0.154410  -0.059277   0.370041  -0.026585
   36  C  3  S    0.000601   0.033006   0.058533  -0.029193  -0.319648
   37  C  3  X    0.012243   0.003503  -0.018530  -0.020281   0.076239
   38  C  3  Y   -0.000729  -0.015435  -0.066669  -0.017294  -0.138180
   39  C  3  Z   -0.027029   0.083121  -0.028113   0.262604  -0.019343
   40  C  3 XX    0.007330   0.002442  -0.004780   0.000077   0.002919
   41  C  3 YY   -0.014937  -0.002307   0.011670   0.000343   0.000721
   42  C  3 ZZ    0.000024  -0.000384  -0.001674   0.000538   0.001910
   43  C  3 XY    0.005865   0.007838   0.023666   0.000160   0.006403
   44  C  3 XZ    0.001362  -0.001180   0.000435   0.014607   0.000286
   45  C  3 YZ   -0.003181   0.008062  -0.000984  -0.000181   0.001087
   46  C  4  S   -0.014939  -0.005629   0.007837  -0.000455  -0.003530
   47  C  4  S    0.032759   0.013664  -0.016129   0.000864   0.001955
   48  C  4  X   -0.259236  -0.032286   0.093130  -0.016873  -0.056857
   49  C  4  Y    0.190356   0.143256   0.278216  -0.007405   0.000284
   50  C  4  Z   -0.024783   0.085693  -0.023006   0.373231  -0.024377
   51  C  4  S    0.076623   0.015162  -0.031470   0.013718   0.019937
   52  C  4  X   -0.113026   0.002917   0.057318  -0.025140  -0.095754
   53  C  4  Y    0.063661   0.047920   0.104299  -0.004449   0.024305
   54  C  4  Z   -0.012561   0.053257  -0.018104   0.257494  -0.012491
   55  C  4 XX    0.004170  -0.000064  -0.002420   0.001017  -0.001562
   56  C  4 YY   -0.012135  -0.001057   0.005485   0.000235   0.000252
   57  C  4 ZZ   -0.000398  -0.000244   0.000829  -0.001196  -0.001183
   58  C  4 XY    0.011457   0.011523   0.023907   0.000633   0.006514
   59  C  4 XZ    0.002084  -0.005878   0.002418  -0.015091   0.000973
   60  C  4 YZ   -0.000357   0.000945   0.000240  -0.001411   0.000986
   61  H  5  S    0.139857   0.015204  -0.043337   0.025553   0.172910
   62  H  5  S    0.142063   0.016282  -0.042685   0.033938   0.270760
   63  H  6  S   -0.069143   0.040352   0.196403   0.002099   0.046888
   64  H  6  S   -0.076471   0.039120   0.193392   0.001751   0.085926
   65  H  7  S    0.034554   0.079131   0.190385  -0.000088   0.007188
   66  H  7  S    0.027164   0.055172   0.159154   0.009978   0.071358
   67  H  8  S   -0.178171  -0.090006  -0.140636  -0.002346  -0.032665
   68  H  8  S   -0.156843  -0.091350  -0.133537   0.000663  -0.016190

                     16         17         18         19         20
                   -0.0651     0.0646     0.1056     0.1318     0.1643
                     A          A          A          A          A   
    1  O  1  S   -0.002093   0.007040   0.005433  -0.023197  -0.000348
    2  O  1  S    0.000445  -0.010431  -0.018424   0.055382   0.038622
    3  O  1  X   -0.077905  -0.058895  -0.067532   0.011154  -0.072241
    4  O  1  Y   -0.058446  -0.010382   0.033269  -0.057689  -0.064448
    5  O  1  Z    0.321302   0.257901  -0.039209  -0.008731  -0.022437
    6  O  1  S    0.034860  -0.091617  -0.040082   0.240010  -0.207972
    7  O  1  X   -0.077476  -0.062709  -0.096950  -0.086508  -0.109000
    8  O  1  Y   -0.064129   0.002626   0.049126  -0.124980   0.022938
    9  O  1  Z    0.313638   0.304483  -0.058662  -0.028472  -0.011598
   10  O  1 XX   -0.001391   0.001535   0.002776  -0.007829   0.014544
   11  O  1 YY   -0.000644   0.000297  -0.001704   0.008729   0.004333
   12  O  1 ZZ   -0.002823   0.005622  -0.004065  -0.002210   0.006888
   13  O  1 XY    0.000756  -0.002998  -0.003915   0.002697  -0.005628
   14  O  1 XZ   -0.000191   0.003617  -0.000160   0.002154   0.000416
   15  O  1 YZ   -0.001845   0.003492  -0.000499   0.003191  -0.002762
   16  C  2  S    0.001245   0.000615   0.054856   0.054727   0.097176
   17  C  2  S   -0.000466  -0.007407  -0.098109  -0.070669  -0.146663
   18  C  2  X    0.075230   0.102661   0.147708   0.114071   0.223270
   19  C  2  Y    0.050365   0.071257   0.055778   0.031391   0.076462
   20  C  2  Z   -0.330680  -0.384629   0.094263   0.001919   0.067185
   21  C  2  S   -0.024836   0.037803  -0.759739  -1.026453  -1.416244
   22  C  2  X    0.061557   0.149580   0.310963   0.246705   0.709496
   23  C  2  Y    0.023065   0.146160   0.134677  -0.008856   0.517004
   24  C  2  Z   -0.315953  -0.504890   0.194885   0.021665   0.204364
   25  C  2 XX   -0.004307  -0.001119   0.016455  -0.000159   0.000846
   26  C  2 YY   -0.004524  -0.006942  -0.004077   0.004782   0.023043
   27  C  2 ZZ    0.008840   0.008535  -0.000776   0.000157  -0.000260
   28  C  2 XY   -0.006087  -0.007107  -0.007070   0.004955  -0.001528
   29  C  2 XZ    0.003891   0.018403  -0.002603   0.002878   0.002971
   30  C  2 YZ    0.028640  -0.002959  -0.001227   0.000185   0.004415
   31  C  3  S   -0.001366   0.002416   0.041984   0.006359  -0.090389
   32  C  3  S   -0.003652  -0.010301  -0.057848  -0.001139   0.145046
   33  C  3  X   -0.000401  -0.004328   0.085179  -0.065284  -0.097158
   34  C  3  Y    0.003788   0.008431   0.262112   0.061560  -0.076613
   35  C  3  Z   -0.200571   0.410824  -0.033921   0.019625  -0.000544
   36  C  3  S    0.048637   0.003579  -0.783070  -0.108140   1.378846
   37  C  3  X    0.054176   0.053843   0.139169  -0.379945  -0.574578
   38  C  3  Y    0.013894   0.020243   0.568803   0.210249  -0.328773
   39  C  3  Z   -0.264081   0.629738  -0.078054   0.009657  -0.077831
   40  C  3 XX   -0.005625  -0.007500  -0.006826   0.007350  -0.012069
   41  C  3 YY    0.003408   0.007052   0.010617  -0.006284  -0.000634
   42  C  3 ZZ    0.000968  -0.000909   0.003397   0.003183  -0.001032
   43  C  3 XY    0.001497   0.004269   0.020012   0.009916  -0.000779
   44  C  3 XZ    0.028675  -0.004583  -0.000135   0.001216   0.000516
   45  C  3 YZ   -0.010172  -0.018479   0.004600   0.000252   0.002530
   46  C  4  S    0.003948   0.012663   0.038972  -0.119089   0.056296
   47  C  4  S   -0.006687  -0.025464  -0.066827   0.183913  -0.100481
   48  C  4  X    0.005914   0.018502  -0.085906   0.199055  -0.004799
   49  C  4  Y   -0.002838   0.018542   0.186491   0.036071  -0.119846
   50  C  4  Z    0.361014  -0.252632   0.023180  -0.006801  -0.005385
   51  C  4  S   -0.064663  -0.165061  -0.515023   1.977639  -0.490377
   52  C  4  X    0.031236   0.032226  -0.305581   0.461834  -0.007985
   53  C  4  Y   -0.001349   0.044234   0.371407   0.069462  -0.264043
   54  C  4  Z    0.443662  -0.451009   0.047855  -0.001678   0.010541
   55  C  4 XX   -0.000540   0.001466   0.000548  -0.000440   0.011006
   56  C  4 YY    0.000779   0.001560   0.006120  -0.012839  -0.000643
   57  C  4 ZZ    0.000630  -0.000905   0.000830  -0.005489   0.002182
   58  C  4 XY   -0.000455  -0.001933  -0.022420  -0.008650   0.001767
   59  C  4 XZ    0.010461  -0.026256   0.002292  -0.001704  -0.000367
   60  C  4 YZ   -0.001615  -0.004417   0.000505  -0.000277   0.000831
   61  H  5  S   -0.007867   0.017642   0.044674   0.033179   0.061543
   62  H  5  S   -0.009691   0.083301   0.910681   0.776303   1.624098
   63  H  6  S    0.015216   0.025002   0.067117   0.022325  -0.067669
   64  H  6  S    0.031849   0.137561   1.238134   0.127427  -1.317998
   65  H  7  S    0.001629  -0.001586  -0.036377  -0.097647   0.034519
   66  H  7  S   -0.012431   0.003379  -0.177339  -1.369733   0.693077
   67  H  8  S    0.003328   0.011559   0.081691  -0.037003   0.018798
   68  H  8  S    0.009188   0.114781   1.034682  -1.111619   0.008876

                     21         22         23         24         25
                    0.1907     0.2635     0.3208     0.3354     0.5144
                     A          A          A          A          A   
    1  O  1  S   -0.011596  -0.104671   0.047851  -0.001752  -0.014088
    2  O  1  S    0.041336   0.091811  -0.028633  -0.010933   0.063291
    3  O  1  X    0.094001  -0.129172  -0.062558   0.094912  -0.009358
    4  O  1  Y   -0.064172  -0.165700   0.004964  -0.117482  -0.017054
    5  O  1  Z    0.004120  -0.030220   0.013887   0.016622   0.045712
    6  O  1  S    0.063323   2.024024  -1.181539  -0.004132   0.204622
    7  O  1  X    0.113358  -0.353516   0.054049   0.333802  -0.040981
    8  O  1  Y   -0.109024  -0.764357   0.432579  -0.207716  -0.122779
    9  O  1  Z    0.013886  -0.175034   0.111172   0.046573   0.022526
   10  O  1 XX    0.004771  -0.055697   0.035014   0.011779   0.023177
   11  O  1 YY    0.003518  -0.018894  -0.012773  -0.020324   0.018920
   12  O  1 ZZ    0.002942  -0.063190   0.033028  -0.011303  -0.012960
   13  O  1 XY    0.003906   0.023062  -0.015272   0.002088   0.016968
   14  O  1 XZ    0.002595   0.006028  -0.004481   0.005883  -0.011254
   15  O  1 YZ    0.000805   0.015018  -0.011955   0.000175  -0.028428
   16  C  2  S    0.026056   0.040105  -0.014355   0.084364   0.027636
   17  C  2  S   -0.067905   0.003756  -0.103584  -0.123950  -0.011210
   18  C  2  X   -0.218182  -0.072535   0.020455  -0.378578  -0.248238
   19  C  2  Y    0.115123  -0.154988   0.008136   0.279083  -0.041566
   20  C  2  Z   -0.031523  -0.069565   0.012593  -0.062422   0.576465
   21  C  2  S    0.014929  -1.342729   0.850166  -2.019976   0.012288
   22  C  2  X   -0.295157  -0.415295   1.070654  -1.383899   0.101118
   23  C  2  Y    0.092851  -1.864666   0.954255   1.361770  -0.252861
   24  C  2  Z   -0.077624  -0.436436   0.247595  -0.110444  -0.653922
   25  C  2 XX    0.007499  -0.014749  -0.019855   0.001989   0.033389
   26  C  2 YY    0.007371   0.016926   0.026680   0.019787   0.015816
   27  C  2 ZZ   -0.006610  -0.014993  -0.001128  -0.011883  -0.018511
   28  C  2 XY   -0.002947   0.018845   0.016587  -0.013007  -0.035757
   29  C  2 XZ    0.004122   0.005514  -0.004284   0.001207   0.022658
   30  C  2 YZ    0.001196   0.007128   0.006498   0.002486  -0.001375
   31  C  3  S   -0.073923   0.030549   0.088044  -0.067694  -0.032364
   32  C  3  S    0.118489   0.026807  -0.104668   0.083789   0.016026
   33  C  3  X   -0.110610  -0.026493  -0.275349  -0.142265  -0.248565
   34  C  3  Y   -0.080398   0.019467  -0.130310   0.301061   0.203297
   35  C  3  Z   -0.002769   0.057246  -0.011904  -0.006051   0.413390
   36  C  3  S    1.218987  -1.419653  -3.123571   1.123306   0.037286
   37  C  3  X   -0.258789  -0.230369  -2.729762  -1.420163   0.789569
   38  C  3  Y   -0.688526   0.028280  -0.951418   2.159575  -0.187963
   39  C  3  Z    0.000797   0.129923  -0.158991   0.036917  -0.194129
   40  C  3 XX    0.001367   0.041982  -0.015530   0.015009  -0.041585
   41  C  3 YY   -0.010908  -0.022862  -0.003443  -0.037131  -0.001842
   42  C  3 ZZ    0.000337  -0.000499   0.009350   0.007562   0.023819
   43  C  3 XY    0.032284  -0.007183   0.008766   0.028371   0.001013
   44  C  3 XZ    0.000953   0.006123  -0.001268   0.001573   0.020782
   45  C  3 YZ    0.000021  -0.004691  -0.000747  -0.002372   0.019570
   46  C  4  S    0.013857  -0.014424  -0.076687  -0.006053   0.003715
   47  C  4  S   -0.014159   0.056708  -0.026307   0.000596  -0.140222
   48  C  4  X   -0.005926  -0.229229  -0.010557  -0.087529   0.277901
   49  C  4  Y    0.356099   0.012034  -0.002770  -0.190646   0.023942
   50  C  4  Z    0.000192  -0.021239   0.007077  -0.015537   0.486650
   51  C  4  S   -0.207092   0.198872   3.239013   0.594448  -0.376358
   52  C  4  X    0.085307  -0.732439  -2.872641  -0.438181  -0.159431
   53  C  4  Y    1.456709  -0.056398   0.243652  -1.023992  -0.083130
   54  C  4  Z    0.021219  -0.078256  -0.060586  -0.035629  -0.458682
   55  C  4 XX    0.006274  -0.008312  -0.032222   0.007055  -0.024828
   56  C  4 YY   -0.007415   0.006455   0.039356  -0.013178   0.004658
   57  C  4 ZZ    0.003245  -0.000257  -0.012564   0.002546  -0.000916
   58  C  4 XY   -0.006863   0.013551  -0.009789  -0.047193  -0.008713
   59  C  4 XZ   -0.000299  -0.005126  -0.000126  -0.000855  -0.029441
   60  C  4 YZ   -0.000753  -0.001565   0.000990  -0.001238  -0.008215
   61  H  5  S    0.029441   0.028364  -0.089654  -0.018141   0.140583
   62  H  5  S   -0.387632  -0.172341   0.478923  -0.695637  -0.098162
   63  H  6  S    0.015212  -0.102900   0.009093   0.005521  -0.043752
   64  H  6  S   -1.230552   0.128745  -1.036120   0.741320   0.136679
   65  H  7  S   -0.048796   0.067136   0.063864  -0.126251   0.026169
   66  H  7  S   -1.391140   0.444274   0.082422   0.996546   0.090497
   67  H  8  S    0.048993  -0.005208   0.109718   0.136024  -0.001012
   68  H  8  S    1.531015   0.379951   0.503516  -0.619836  -0.080333

                     26         27         28         29         30
                    0.5180     0.5753     0.5822     0.6044     0.6462
                     A          A          A          A          A   
    1  O  1  S   -0.023329   0.004020   0.002668   0.014231  -0.012674
    2  O  1  S    0.093831   0.092155  -0.040234  -0.037355   0.035610
    3  O  1  X   -0.015377   0.236720  -0.061189   0.112325  -0.075316
    4  O  1  Y   -0.026988  -0.161314   0.080919  -0.076721  -0.074049
    5  O  1  Z   -0.052553   0.015582  -0.053467   0.015504   0.042677
    6  O  1  S    0.324247  -0.479403   0.157965  -0.256526   0.055104
    7  O  1  X   -0.020751   0.173811  -0.050878   0.053669  -0.028518
    8  O  1  Y   -0.186529   0.050696   0.048556   0.175772  -0.104895
    9  O  1  Z   -0.065616   0.001456  -0.110533   0.087079   0.032564
   10  O  1 XX    0.022235   0.019502  -0.007793  -0.000487   0.002635
   11  O  1 YY    0.000977   0.001383  -0.007975  -0.013142  -0.018764
   12  O  1 ZZ    0.006008   0.041893   0.006423   0.015646   0.004430
   13  O  1 XY   -0.004399  -0.021071   0.007037   0.013074  -0.024926
   14  O  1 XZ    0.014097  -0.003270   0.005326   0.000124  -0.001412
   15  O  1 YZ    0.015865   0.009058   0.047096  -0.016187  -0.031629
   16  C  2  S    0.050223   0.021425  -0.011828  -0.011821   0.017042
   17  C  2  S    0.019215   0.207900  -0.240768  -0.434992  -0.109613
   18  C  2  X   -0.095453   0.373479  -0.037440  -0.047590  -0.067739
   19  C  2  Y    0.048668  -0.274041   0.368973   0.198949  -0.255094
   20  C  2  Z   -0.315932  -0.255947  -0.597730   0.187428   0.181381
   21  C  2  S   -0.110795  -0.568782   0.569637   0.771394  -0.036530
   22  C  2  X   -0.188061  -1.062038   0.278098  -0.118228   0.059869
   23  C  2  Y   -0.483152   1.188192  -0.820653   0.118144   0.168024
   24  C  2  Z    0.263385   0.321913   0.849041  -0.291973  -0.605596
   25  C  2 XX    0.062785  -0.012408  -0.007362  -0.118845  -0.008101
   26  C  2 YY    0.046907   0.080461  -0.049015  -0.006976   0.023121
   27  C  2 ZZ   -0.043133  -0.007603  -0.003433   0.028401  -0.014269
   28  C  2 XY   -0.052354  -0.006733   0.005505   0.016022   0.019931
   29  C  2 XZ    0.011261  -0.008776  -0.033878  -0.016210  -0.001384
   30  C  2 YZ    0.012361   0.006730  -0.007666  -0.006794   0.029127
   31  C  3  S   -0.049547   0.016141  -0.028057  -0.034177   0.016893
   32  C  3  S    0.050353   0.202797  -0.214300  -0.524829  -0.146633
   33  C  3  X   -0.398411  -0.208754   0.090459   0.030729  -0.109216
   34  C  3  Y    0.355190   0.219586  -0.075631   0.078221  -0.016086
   35  C  3  Z   -0.274414   0.072034   0.083863   0.007124  -0.865780
   36  C  3  S    0.012723   0.438835  -0.029532   1.005086   0.246380
   37  C  3  X    1.208324  -0.357460   0.271508  -0.238979   0.132163
   38  C  3  Y   -0.268739   0.482419  -0.274546  -0.171673  -0.028368
   39  C  3  Z    0.194226  -0.084928  -0.176123   0.021686   1.423559
   40  C  3 XX   -0.061320   0.085436  -0.076021  -0.046482   0.024615
   41  C  3 YY    0.007374   0.023696  -0.048018  -0.150124  -0.009758
   42  C  3 ZZ    0.031341  -0.026137   0.037892   0.051989  -0.015503
   43  C  3 XY   -0.005714  -0.065322   0.025540  -0.038582  -0.002446
   44  C  3 XZ   -0.019242   0.026692   0.036317  -0.016374   0.009545
   45  C  3 YZ   -0.010793  -0.005639  -0.006083  -0.010978  -0.028554
   46  C  4  S    0.003250  -0.018798   0.010067  -0.016781  -0.026611
   47  C  4  S   -0.187847   0.279134  -0.245991  -0.369702  -0.143831
   48  C  4  X    0.461009  -0.214879   0.162866   0.004760  -0.135077
   49  C  4  Y    0.103079   0.252252  -0.074712   0.211642  -0.055546
   50  C  4  Z   -0.335406   0.368873   0.631746  -0.188639   0.441535
   51  C  4  S   -0.635519  -0.170851   0.112146   0.659523   0.318293
   52  C  4  X   -0.428840  -0.132195   0.041459   0.314300   0.318999
   53  C  4  Y   -0.257639  -0.741134   0.218334  -0.496463   0.181137
   54  C  4  Z    0.313852  -0.410190  -0.656134   0.210628  -0.849433
   55  C  4 XX   -0.045509  -0.019988   0.005704  -0.035296  -0.050616
   56  C  4 YY    0.014726   0.031012  -0.030161  -0.083002  -0.041713
   57  C  4 ZZ    0.001669   0.010527  -0.002033   0.036914   0.030127
   58  C  4 XY    0.004045   0.063546  -0.011593   0.052750  -0.010182
   59  C  4 XZ    0.017585  -0.013658  -0.021018   0.003963   0.017625
   60  C  4 YZ    0.004844   0.006043   0.010405  -0.006439  -0.014160
   61  H  5  S    0.240155  -0.165505   0.001122  -0.394167   0.069413
   62  H  5  S   -0.125694  -0.207344   0.076359  -0.042445  -0.026277
   63  H  6  S   -0.116317  -0.098738  -0.131315  -0.547774   0.041677
   64  H  6  S    0.222316   0.267032  -0.118725  -0.030207   0.016906
   65  H  7  S    0.126793   0.272134  -0.092180  -0.063462  -0.210482
   66  H  7  S    0.213448   0.299452  -0.101235  -0.027674  -0.134282
   67  H  8  S   -0.033340  -0.165841  -0.006131  -0.416575  -0.143116
   68  H  8  S   -0.064483  -0.031841  -0.005800  -0.198903  -0.015857

                     31         32         33         34         35
                    0.6533     0.6959     0.8047     0.8410     0.8491
                     A          A          A          A          A   
    1  O  1  S   -0.022154   0.035130   0.019383   0.000943   0.005966
    2  O  1  S    0.033961  -0.129296  -0.130966   0.075631  -0.402966
    3  O  1  X   -0.125876   0.093992  -0.094554   0.075224  -0.258202
    4  O  1  Y   -0.125491   0.327474  -0.253261   0.162777  -0.459889
    5  O  1  Z   -0.084840   0.079707  -0.054247   0.046540  -0.092269
    6  O  1  S    0.016345   0.291800  -0.680966  -0.120600   0.341989
    7  O  1  X    0.000228   0.082502  -0.095257  -0.070742   0.419628
    8  O  1  Y   -0.152288   0.155613   0.784530  -0.239160   0.866918
    9  O  1  Z   -0.059391   0.038682   0.113748  -0.051612   0.192756
   10  O  1 XX    0.007299  -0.029869  -0.026978   0.047213  -0.165783
   11  O  1 YY   -0.071707   0.121207  -0.151420   0.043752  -0.170690
   12  O  1 ZZ    0.002355  -0.054815   0.000566   0.028243  -0.146059
   13  O  1 XY   -0.056430   0.073142   0.048275   0.012454  -0.055856
   14  O  1 XZ   -0.012643   0.021025   0.006827   0.006865  -0.016678
   15  O  1 YZ   -0.010760   0.050166  -0.017574   0.010773  -0.015866
   16  C  2  S    0.031303  -0.039630  -0.002478  -0.003352   0.053890
   17  C  2  S   -0.069922   0.604455   0.286217  -0.110523  -0.170722
   18  C  2  X   -0.075595   0.268278  -0.682967  -0.045469   0.417983
   19  C  2  Y   -0.451142   0.722493   0.136085   0.038423   0.220651
   20  C  2  Z   -0.246194   0.163055  -0.133780  -0.001213   0.125120
   21  C  2  S   -0.251290  -0.376615   1.274266   0.720975   1.175887
   22  C  2  X    0.025189  -0.247451   3.119106   0.190755  -0.488677
   23  C  2  Y    0.359869  -0.720252  -0.276020  -0.246807   0.033407
   24  C  2  Z    0.459610  -0.168638   0.562386  -0.006195  -0.109352
   25  C  2 XX    0.008285   0.065014  -0.053368   0.014215   0.068043
   26  C  2 YY    0.069202  -0.056089   0.181269  -0.026913   0.110826
   27  C  2 ZZ   -0.038021   0.035151   0.007761  -0.010001  -0.090679
   28  C  2 XY    0.041184  -0.089818  -0.005068  -0.072318   0.098944
   29  C  2 XZ    0.014840  -0.006290  -0.006958  -0.014311   0.060073
   30  C  2 YZ    0.017953  -0.042909   0.024100  -0.023084   0.059157
   31  C  3  S    0.043493   0.032087   0.037802   0.005773  -0.004239
   32  C  3  S   -0.298032  -0.028609   0.325214   0.098153   0.168466
   33  C  3  X   -0.408273  -0.479796   0.071308  -0.077962   0.113447
   34  C  3  Y   -0.090182   0.080325   0.617097   0.263219   0.080496
   35  C  3  Z    0.361129  -0.064844  -0.004877   0.003544   0.025755
   36  C  3  S    0.540539  -0.344962  -1.610302  -0.246003  -0.482039
   37  C  3  X    0.533901   0.410143  -0.335224   0.164132  -0.426730
   38  C  3  Y    0.096361   0.132261  -2.845679  -1.456207  -0.366429
   39  C  3  Z   -0.627786   0.106374  -0.126712  -0.029593  -0.039066
   40  C  3 XX    0.069031   0.058301   0.063453   0.025745  -0.007467
   41  C  3 YY   -0.008503   0.016246  -0.011355  -0.015081  -0.015802
   42  C  3 ZZ   -0.042371  -0.028313  -0.021504   0.003582   0.013303
   43  C  3 XY   -0.002529   0.047942   0.038211  -0.080583  -0.011314
   44  C  3 XZ    0.008531  -0.003959   0.008216  -0.003530  -0.003711
   45  C  3 YZ    0.012979   0.009914   0.003146  -0.001423   0.001009
   46  C  4  S   -0.067094  -0.054422   0.006934  -0.000939  -0.012238
   47  C  4  S   -0.308419  -0.031764   0.183495   0.045746   0.263553
   48  C  4  X   -0.311048  -0.384889  -0.189269  -0.049786   0.173157
   49  C  4  Y   -0.106839   0.055539   0.044278  -1.052243  -0.191243
   50  C  4  Z   -0.143223  -0.000045   0.024021  -0.023581   0.002692
   51  C  4  S    0.661159   0.346130   0.551169  -0.013777  -0.090184
   52  C  4  X    0.665570   0.253066   0.287477   0.038164  -0.450876
   53  C  4  Y    0.343742  -0.313615   0.511489   2.691544   0.603590
   54  C  4  Z    0.328704  -0.024900  -0.010063   0.056695   0.007147
   55  C  4 XX   -0.128798  -0.105727   0.046813  -0.011204   0.059295
   56  C  4 YY   -0.093855  -0.030703   0.018967   0.018038  -0.045169
   57  C  4 ZZ    0.074480   0.060318  -0.023323  -0.003692   0.028582
   58  C  4 XY   -0.024513  -0.001066  -0.038184   0.118369   0.043616
   59  C  4 XZ   -0.018835  -0.000934   0.000331   0.003133   0.003775
   60  C  4 YZ    0.005195  -0.003496   0.006209   0.003952  -0.001950
   61  H  5  S    0.116514   0.100328  -0.341705  -0.085612   0.575989
   62  H  5  S    0.093430  -0.065912   2.075245   0.050524  -1.116691
   63  H  6  S    0.152425   0.157682   0.164911  -0.093812  -0.105739
   64  H  6  S    0.048858   0.011793  -1.411510  -0.405786  -0.094474
   65  H  7  S   -0.494817  -0.169796  -0.011359   0.457099  -0.074721
   66  H  7  S   -0.262618   0.192819  -0.429018  -1.866775  -0.110202
   67  H  8  S   -0.331961  -0.212217  -0.047335  -0.431365  -0.291431
   68  H  8  S   -0.034224  -0.191162  -0.046242   1.768541   0.788054

                     36         37         38         39         40
                    0.8689     0.9089     0.9564     0.9935     1.0730
                     A          A          A          A          A   
    1  O  1  S   -0.000941   0.007334   0.002518  -0.003581   0.011381
    2  O  1  S   -0.229343  -0.033743   0.164771  -0.032930  -0.069164
    3  O  1  X   -0.105575   0.034653  -0.158528   0.166599  -0.211220
    4  O  1  Y   -0.016234  -0.172582   0.152614   0.126642   0.366535
    5  O  1  Z    0.006970  -0.169510  -0.016797  -0.898895  -0.048670
    6  O  1  S    0.661085  -0.280807  -0.381921   0.231350  -0.637832
    7  O  1  X    0.105400  -0.137927   0.116570  -0.182598   0.085823
    8  O  1  Y    0.012022   0.476679  -0.124226  -0.243797  -0.440070
    9  O  1  Z   -0.016872   0.224609  -0.002036   1.217607   0.090482
   10  O  1 XX   -0.042058  -0.047832   0.053094  -0.009671  -0.017071
   11  O  1 YY   -0.081233  -0.040650   0.006745  -0.013313  -0.033858
   12  O  1 ZZ   -0.094699   0.029107   0.125394  -0.016380   0.077888
   13  O  1 XY    0.011477  -0.026967   0.017310  -0.004893  -0.015040
   14  O  1 XZ    0.012282  -0.013751  -0.023007   0.023277   0.012666
   15  O  1 YZ    0.006573  -0.020135  -0.019223   0.029204  -0.019464
   16  C  2  S    0.003710   0.006954  -0.035127   0.003509   0.009903
   17  C  2  S    0.667365  -0.515159  -1.256185   0.161846  -0.107689
   18  C  2  X   -0.264345  -0.061238   0.040108  -0.005912  -0.248200
   19  C  2  Y   -0.013379   0.150290   0.187180  -0.033959  -0.042636
   20  C  2  Z   -0.043705   0.038372   0.033277   0.113080  -0.033863
   21  C  2  S   -1.953471   1.935415   3.871454  -0.677905  -1.237291
   22  C  2  X   -0.068413   0.673075   0.168584  -0.269285   1.327617
   23  C  2  Y    0.076580  -0.604164  -1.464266   0.202127   1.471420
   24  C  2  Z    0.041002  -0.005904  -0.116866  -0.669946   0.291431
   25  C  2 XX   -0.032769  -0.045064  -0.150814  -0.010207   0.092715
   26  C  2 YY    0.102096   0.041202  -0.036952   0.017272  -0.078982
   27  C  2 ZZ    0.030222  -0.022995   0.008564   0.003800  -0.008283
   28  C  2 XY   -0.010056   0.060698  -0.034573   0.004282  -0.036127
   29  C  2 XZ   -0.016915   0.020597  -0.048999   0.011809   0.103889
   30  C  2 YZ    0.005980   0.012971  -0.016304  -0.023723  -0.080278
   31  C  3  S   -0.024186  -0.001122   0.023463  -0.003714   0.011111
   32  C  3  S    0.689289   0.037410   0.453886  -0.149373   0.411504
   33  C  3  X   -0.291770  -0.463327  -0.405855   0.047987   0.225329
   34  C  3  Y   -0.733994  -0.178946   0.037979  -0.014024  -0.000175
   35  C  3  Z   -0.043697  -0.020156  -0.002818  -0.047676   0.012898
   36  C  3  S   -0.932476  -0.092378  -1.097236   0.590508  -1.606552
   37  C  3  X    0.737796   1.795800   2.491389  -0.107915  -2.965679
   38  C  3  Y    2.037455  -0.145977  -0.880610   0.388126   0.612238
   39  C  3  Z    0.105816   0.060017   0.064464   0.286498  -0.200757
   40  C  3 XX    0.076049   0.076612   0.102266  -0.015261   0.019031
   41  C  3 YY   -0.022204  -0.089098  -0.024162   0.000588   0.004375
   42  C  3 ZZ    0.062768   0.026637  -0.016434  -0.005195   0.000529
   43  C  3 XY   -0.110560   0.001321   0.066358  -0.004629  -0.003301
   44  C  3 XZ    0.005076   0.000275   0.000364   0.036694  -0.032509
   45  C  3 YZ   -0.007256  -0.003146  -0.009016  -0.018350   0.093908
   46  C  4  S   -0.000377   0.031084   0.002519  -0.001520  -0.015419
   47  C  4  S    0.248770  -0.392231   1.185074   0.189752  -0.241423
   48  C  4  X    0.179430  -0.670747  -0.006775   0.114860  -0.183953
   49  C  4  Y   -0.003136  -0.026144   0.089405  -0.031739   0.339999
   50  C  4  Z    0.019340  -0.017709  -0.012225   0.034290   0.032143
   51  C  4  S   -0.882239  -0.045184  -3.561520  -0.580547   3.159952
   52  C  4  X   -0.002194   1.708366   0.796745  -0.192802  -0.810681
   53  C  4  Y   -0.406377   0.101799   0.080435  -0.093478  -1.879826
   54  C  4  Z   -0.044583   0.046998   0.042820  -0.142399  -0.046154
   55  C  4 XX    0.014242  -0.112683   0.054237   0.009063   0.060658
   56  C  4 YY   -0.011296   0.145994   0.072379  -0.010543  -0.047205
   57  C  4 ZZ    0.023471  -0.097934   0.031679   0.026015  -0.039439
   58  C  4 XY    0.064305  -0.003174  -0.038881   0.006225   0.132222
   59  C  4 XZ   -0.003646   0.000878   0.001717  -0.028803   0.027932
   60  C  4 YZ    0.003505   0.002761  -0.004163  -0.014650   0.034645
   61  H  5  S   -0.284598   0.202931  -0.088378  -0.077672   0.622329
   62  H  5  S    0.719377  -0.125411  -0.591487  -0.032622   0.438246
   63  H  6  S   -0.582402  -0.257125   0.022842   0.088014  -0.151693
   64  H  6  S    2.108167   0.820866   0.440257  -0.006626  -0.116736
   65  H  7  S   -0.082563   0.551213  -0.238471  -0.047526   0.293442
   66  H  7  S    0.254382  -1.187775   0.634512   0.314028   0.350954
   67  H  8  S   -0.146982   0.545464  -0.107417  -0.094281  -0.412115
   68  H  8  S    0.213304  -1.121790   0.426289   0.260081  -0.798476

                     41         42         43         44         45
                    1.1025     1.1209     1.2675     1.3553     1.4450
                     A          A          A          A          A   
    1  O  1  S   -0.000287   0.010048   0.001848  -0.019772  -0.008176
    2  O  1  S    0.058650   0.071273   0.201861  -0.485640  -0.057365
    3  O  1  X   -0.612600  -0.352908  -0.257396   0.077681   0.027854
    4  O  1  Y    0.150019   0.161785  -0.164996   0.171034  -0.019341
    5  O  1  Z   -0.119724   0.003325  -0.010687   0.003437   0.012521
    6  O  1  S   -0.052643  -0.326047  -0.067699   1.137367   0.332564
    7  O  1  X    1.248286   0.652342   0.507318  -0.222944  -0.023143
    8  O  1  Y   -0.285041  -0.231179   0.143968  -0.439608  -0.019683
    9  O  1  Z    0.242211   0.031091  -0.084865  -0.204310  -0.094517
   10  O  1 XX    0.067239   0.050011   0.092124  -0.061043  -0.061837
   11  O  1 YY   -0.051673   0.037210   0.082045  -0.127502   0.023611
   12  O  1 ZZ    0.005723  -0.003745  -0.039936  -0.167501  -0.033292
   13  O  1 XY    0.095044   0.016134   0.032254   0.017701   0.000757
   14  O  1 XZ    0.024423   0.036807  -0.009653  -0.167204   0.135070
   15  O  1 YZ    0.016997   0.002263  -0.057485  -0.103982  -0.133485
   16  C  2  S   -0.003673   0.024960   0.026226  -0.011090  -0.008366
   17  C  2  S   -0.087349   0.658413   0.080352  -0.002025  -0.106846
   18  C  2  X    0.355977   0.038582  -0.197529   0.012347   0.056279
   19  C  2  Y   -0.055424  -0.141042   0.041868  -0.020367   0.021782
   20  C  2  Z    0.072438  -0.025535  -0.034888   0.000172  -0.046964
   21  C  2  S    1.015233  -2.092632  -2.154480  -0.332450   0.412956
   22  C  2  X   -1.629351  -0.581042  -1.378353   0.365170  -0.293458
   23  C  2  Y    0.160052   1.368261   0.580418  -0.297215  -0.430774
   24  C  2  Z   -0.344645   0.106556  -0.013530   0.085432  -0.053195
   25  C  2 XX   -0.093321  -0.008835  -0.027497   0.142567  -0.142269
   26  C  2 YY    0.112196   0.045921  -0.044907  -0.118493   0.008456
   27  C  2 ZZ   -0.030151   0.017263   0.066757  -0.023348   0.124700
   28  C  2 XY   -0.102706  -0.009628   0.038120  -0.078150  -0.053022
   29  C  2 XZ   -0.071412   0.058903  -0.063201  -0.238974   0.391390
   30  C  2 YZ    0.010986  -0.014030   0.160899   0.356956  -0.018577
   31  C  3  S    0.015486  -0.049793  -0.026692   0.002066   0.003534
   32  C  3  S    0.461764  -1.400727  -0.773028   0.079678   0.084462
   33  C  3  X    0.106514  -0.081117  -0.062396  -0.001596  -0.014817
   34  C  3  Y    0.132613   0.090873  -0.331014   0.118285   0.001081
   35  C  3  Z    0.015268   0.006629  -0.004645  -0.013506  -0.130264
   36  C  3  S   -1.132620   5.891789   3.042711  -0.302887  -0.320687
   37  C  3  X   -0.257084   0.415191   1.003958  -0.472141   0.452439
   38  C  3  Y   -0.297602  -0.118437   3.870940  -0.991089  -0.052323
   39  C  3  Z    0.058731  -0.053588   0.129417  -0.042615   0.033966
   40  C  3 XX   -0.012407  -0.003625  -0.054525  -0.020429  -0.022174
   41  C  3 YY    0.087573  -0.170119  -0.002725   0.036670  -0.014779
   42  C  3 ZZ   -0.021032   0.015280   0.018982  -0.016344   0.042973
   43  C  3 XY   -0.039124  -0.073143   0.076258  -0.009940  -0.029224
   44  C  3 XZ    0.019522  -0.011447   0.106729   0.407698   0.359600
   45  C  3 YZ   -0.027053   0.041881  -0.091665  -0.283549   0.497015
   46  C  4  S   -0.013305   0.026702   0.014237  -0.005593   0.000343
   47  C  4  S   -0.896713   0.982052   0.264269   0.020780  -0.054728
   48  C  4  X   -0.010507  -0.187263   0.030847  -0.085724   0.043123
   49  C  4  Y    0.005505  -0.010516   0.069273   0.040185  -0.038981
   50  C  4  Z    0.003140   0.017120  -0.027175  -0.118427  -0.083962
   51  C  4  S    2.388187  -3.533836  -2.193978   0.544366  -0.179750
   52  C  4  X   -0.294087   1.360940   0.807836  -0.074366   0.006085
   53  C  4  Y    0.569393   0.652966  -2.550485   0.474549   0.210841
   54  C  4  Z   -0.034017   0.040033  -0.034789   0.025787   0.007635
   55  C  4 XX   -0.015220  -0.014260  -0.058745   0.038068   0.009682
   56  C  4 YY   -0.049061   0.116413   0.057004   0.006692  -0.013384
   57  C  4 ZZ   -0.050016   0.012272   0.033465  -0.050158   0.004779
   58  C  4 XY   -0.001528  -0.025349   0.144206   0.004874  -0.020669
   59  C  4 XZ   -0.018090   0.005137  -0.080786  -0.331741  -0.383460
   60  C  4 YZ   -0.005590   0.022989  -0.027206  -0.123538   0.280707
   61  H  5  S   -0.320737   0.152399  -0.218057   0.166515  -0.109834
   62  H  5  S   -0.903754   0.165108  -0.135033   0.122011  -0.210109
   63  H  6  S    0.064278  -0.409584   0.690481  -0.249384   0.065212
   64  H  6  S   -0.021860  -0.651295   1.164390  -0.452080   0.112172
   65  H  7  S    0.018141  -0.008444   0.660441  -0.122201  -0.027307
   66  H  7  S   -0.821505  -0.078616   0.813686  -0.208809  -0.052414
   67  H  8  S    0.228211   0.309840  -0.474626   0.107936   0.028592
   68  H  8  S   -0.325428   0.359235  -0.609567   0.046147   0.093463

                     46         47         48         49         50
                    1.5431     1.5578     1.6565     1.7231     1.8005
                     A          A          A          A          A   
    1  O  1  S   -0.004744  -0.102453  -0.000932  -0.041401   0.001162
    2  O  1  S   -0.057546  -1.595414   0.002741  -0.791376   0.091827
    3  O  1  X   -0.042672   0.054483   0.018777  -0.050766   0.204789
    4  O  1  Y   -0.017315   0.086971   0.000915   0.081718  -0.147564
    5  O  1  Z    0.111375   0.051014  -0.059173   0.020423   0.034162
    6  O  1  S    0.255307   5.654375   0.001298   2.773902  -0.153046
    7  O  1  X    0.006623  -0.407817  -0.025176  -0.063331  -0.356960
    8  O  1  Y   -0.077367  -1.561102  -0.010200  -0.875817   0.200447
    9  O  1  Z    0.063291  -0.373996   0.077807  -0.177102  -0.063799
   10  O  1 XX    0.004255  -0.106925   0.114606  -0.506232   0.025875
   11  O  1 YY   -0.132691  -0.545544  -0.008670  -0.278423  -0.315875
   12  O  1 ZZ    0.080209  -0.506616  -0.109600   0.313178   0.349621
   13  O  1 XY   -0.125323  -0.104784   0.059777   0.094343   0.483470
   14  O  1 XZ   -0.009216   0.148499  -0.283593  -0.148525   0.049959
   15  O  1 YZ    0.465094  -0.030843   0.010287  -0.066279   0.011973
   16  C  2  S   -0.000069  -0.025960   0.001045   0.009781   0.022672
   17  C  2  S   -0.017953  -0.282646  -0.005839   0.380038  -0.090342
   18  C  2  X   -0.065666   0.041643   0.000848   0.151999   0.047310
   19  C  2  Y   -0.020107  -0.047557   0.000275  -0.208147   0.066859
   20  C  2  Z    0.176053  -0.004357   0.004898   0.012193   0.033892
   21  C  2  S   -0.315722  -2.100321  -0.017236  -2.168830  -0.494028
   22  C  2  X   -0.228632  -2.045321   0.060572  -1.327854   0.643247
   23  C  2  Y   -0.034060  -2.704695   0.041233  -0.811074  -0.067901
   24  C  2  Z   -0.157609  -0.776972  -0.173883  -0.355833   0.158486
   25  C  2 XX    0.192103   0.143250   0.079397  -0.202594  -0.295735
   26  C  2 YY    0.092581  -0.077114  -0.060287  -0.136181   0.200834
   27  C  2 ZZ   -0.285669  -0.097347  -0.019991   0.407547   0.067560
   28  C  2 XY    0.164209  -0.222048  -0.029481   0.153005  -0.326763
   29  C  2 XZ   -0.391503   0.093437  -0.204939  -0.123315  -0.155577
   30  C  2 YZ   -0.351545  -0.109156   0.220845  -0.117597  -0.079986
   31  C  3  S   -0.009115  -0.016611   0.000645  -0.008642   0.015037
   32  C  3  S   -0.180036  -0.471013  -0.006178   0.047789  -0.324775
   33  C  3  X   -0.022130  -0.138357   0.002807  -0.122754   0.190310
   34  C  3  Y   -0.029930  -0.080492  -0.001372   0.104484  -0.221285
   35  C  3  Z   -0.087576  -0.006009   0.028669  -0.005536  -0.007451
   36  C  3  S    0.733334   1.806819  -0.026056   0.832409   0.082781
   37  C  3  X    0.344221   2.368848  -0.163434   1.012272  -0.293788
   38  C  3  Y    0.448564   1.040384  -0.073439   0.823074   0.554565
   39  C  3  Z    0.043761   0.292326   0.176772   0.128266  -0.049003
   40  C  3 XX    0.018266  -0.052362  -0.008914  -0.047270  -0.098356
   41  C  3 YY   -0.002066   0.179867   0.026273  -0.239457   0.122090
   42  C  3 ZZ   -0.017623  -0.122813  -0.017704   0.386999   0.009345
   43  C  3 XY    0.023608   0.011402   0.002333   0.161638  -0.319890
   44  C  3 XZ    0.177275  -0.111280  -0.122867  -0.035986   0.001914
   45  C  3 YZ    0.141418   0.055229   0.020561  -0.018886  -0.020156
   46  C  4  S    0.003182   0.003850  -0.001632   0.015427   0.006074
   47  C  4  S    0.076143   0.147319   0.010652   0.018245   0.095694
   48  C  4  X    0.014634   0.009618  -0.027624   0.059651  -0.031526
   49  C  4  Y    0.028660   0.022492   0.010461  -0.121129   0.081829
   50  C  4  Z   -0.069563   0.048621   0.027015   0.007657  -0.013421
   51  C  4  S   -0.580897  -2.349040   0.138467  -1.186704  -0.112873
   52  C  4  X    0.273608   1.045789  -0.021253   0.158060   0.010899
   53  C  4  Y   -0.335112  -0.166354   0.006670  -0.061675  -0.207924
   54  C  4  Z    0.054280  -0.063753  -0.072369  -0.022962   0.032285
   55  C  4 XX    0.014139  -0.051337  -0.007226  -0.066751  -0.088138
   56  C  4 YY    0.012837   0.084071  -0.016808  -0.191675   0.122567
   57  C  4 ZZ   -0.039806  -0.039874   0.025666   0.290322   0.026101
   58  C  4 XY    0.016829   0.046489  -0.012651  -0.123736   0.153767
   59  C  4 XZ   -0.277919   0.113515   0.140933  -0.006906  -0.052232
   60  C  4 YZ    0.104117   0.015979   0.860427   0.041348   0.014738
   61  H  5  S   -0.050845  -0.318639   0.013728   0.034632   0.563668
   62  H  5  S   -0.055121  -0.738431  -0.002728  -0.265029   0.174285
   63  H  6  S    0.044508   0.218007  -0.042446   0.213408   0.191959
   64  H  6  S    0.129090   0.482399  -0.055095   0.438402   0.111687
   65  H  7  S    0.075284   0.083951  -0.013142   0.292794  -0.177505
   66  H  7  S    0.114222   0.042568  -0.012744   0.084787   0.207375
   67  H  8  S   -0.038941   0.070525   0.002785   0.045588   0.048000
   68  H  8  S   -0.127557  -0.119083  -0.013734   0.146100  -0.019550

                     51         52         53         54         55
                    1.8364     1.9257     1.9864     2.0431     2.1544
                     A          A          A          A          A   
    1  O  1  S    0.004262  -0.014462   0.001284  -0.014194  -0.004490
    2  O  1  S    0.037322  -0.024167  -0.277110  -0.402727  -0.064984
    3  O  1  X    0.000138  -0.046361   0.164780  -0.005309  -0.048859
    4  O  1  Y    0.031108  -0.049899   0.201480   0.211623  -0.028061
    5  O  1  Z    0.038343  -0.028110   0.073101   0.042115   0.008300
    6  O  1  S   -0.238872   0.391151   0.388396   1.275275   0.338046
    7  O  1  X    0.028614   0.101429  -0.200937   0.170560   0.091584
    8  O  1  Y    0.048122  -0.146262  -0.122211  -0.489923  -0.151026
    9  O  1  Z   -0.039399   0.022292  -0.078187  -0.066464  -0.076366
   10  O  1 XX   -0.287133  -0.273515   0.221728  -0.624675   0.174663
   11  O  1 YY    0.085385  -0.092696  -0.168611   0.097082  -0.001428
   12  O  1 ZZ    0.219047   0.287393  -0.217488   0.283728  -0.180919
   13  O  1 XY   -0.105071   0.270420   0.131393  -0.082862  -0.172492
   14  O  1 XZ    0.737366  -0.129152   0.028875  -0.281447  -0.101545
   15  O  1 YZ   -0.202379  -0.048802   0.032146  -0.054331   0.144161
   16  C  2  S   -0.001615   0.001491  -0.020284  -0.002852   0.029319
   17  C  2  S    0.025908   0.205446   0.154131   0.031027   0.223600
   18  C  2  X   -0.016467   0.028803   0.217961  -0.102718   0.034883
   19  C  2  Y    0.007793  -0.121353  -0.023538   0.225745  -0.027269
   20  C  2  Z    0.066722  -0.019728   0.020443   0.002093   0.023970
   21  C  2  S    0.023310  -1.016187  -0.382741  -1.330365  -1.003841
   22  C  2  X    0.080748  -0.682035   0.036520  -1.615202  -0.406182
   23  C  2  Y    0.181215   0.295570  -0.089450  -0.191973   0.251787
   24  C  2  Z    0.153966  -0.148002   0.059986  -0.296124   0.097768
   25  C  2 XX    0.027515   0.158548  -0.441838   0.028207  -0.322707
   26  C  2 YY    0.045185  -0.121525   0.372454   0.132647  -0.118814
   27  C  2 ZZ   -0.083924  -0.105019   0.022545  -0.266589   0.485092
   28  C  2 XY    0.056416   0.009375   0.120914   0.201971   0.105200
[...]

          ATOMIC WEIGHTS (AMU)

    1     O                15.99491
    2     C                12.00000
    3     C                12.00000
    4     C                12.00000
    5     H                 1.00782
    6     H                 1.00782
    7     H                 1.00782
    8     H                 1.00782

 MODES    1 TO    6 ARE TAKEN AS ROTATIONS AND TRANSLATIONS.

 ANALYZING SYMMETRY OF NORMAL MODES...

     FREQUENCIES IN CM**-1, IR INTENSITIES IN DEBYE**2/AMU-ANGSTROM**2,
     REDUCED MASSES IN AMU.

                            1           2           3           4           5
       FREQUENCY:         4.96        2.93        0.20        0.18        0.06  
        SYMMETRY:         A           A           A           A           A   
    REDUCED MASS:      4.25728     3.11254     6.61310     6.94952     6.98355
    IR INTENSITY:      0.06656     0.00052     0.00073     0.00001     0.00000

  1   O            X  0.13943255 -0.00503674  0.03049781  0.12479702  0.03013730
                   Y  0.04020190  0.00178490  0.02906161 -0.03796537  0.12481779
                   Z  0.01025336 -0.05960213  0.11401240 -0.02052367 -0.03495207
  2   C            X  0.02877475  0.00636044  0.02977949  0.12622877  0.03087315
                   Y  0.08449166  0.00441134  0.02793691 -0.03828001  0.12455632
                   Z -0.00018317 -0.13127932  0.12825551 -0.02276340 -0.03529174
  3   C            X -0.09187268  0.00464768  0.02946074  0.12756448  0.03164271
                   Y  0.00288048  0.00026541  0.02751888 -0.03734832  0.12508899
                   Z -0.00785492 -0.00716389  0.13697339 -0.02259992 -0.03539280
  4   C            X -0.08658886 -0.01012059  0.02997238  0.12731540  0.03158303
                   Y -0.12880709 -0.00673680  0.02837856 -0.03602078  0.12589965
                   Z -0.00415257  0.19778674  0.12945838 -0.02010976 -0.03517305
  5   H            X  0.01228405  0.01915865  0.02929389  0.12657042  0.03099021
                   Y  0.19293925  0.01031000  0.02713888 -0.03932841  0.12389559
                   Z -0.00466080 -0.30053684  0.13572216 -0.02515815 -0.03555594
  6   H            X -0.18473571  0.01600244  0.02879084  0.12880869  0.03224184
                   Y  0.05520027  0.00322679  0.02647867 -0.03780035  0.12478965
                   Z -0.01665155 -0.09062353  0.14973239 -0.02463784 -0.03566588
  7   H            X  0.00738909 -0.02132441  0.03065153  0.12611441  0.03097760
                   Y -0.17852110 -0.00952819  0.02940997 -0.03559857  0.12618392
                   Z  0.00461220  0.27716325  0.11670077 -0.01812774 -0.03490707
  8   H            X -0.17416176 -0.01149156  0.02975313  0.12836035  0.03214319
                   Y -0.18953642 -0.00977256  0.02808326 -0.03532032  0.12629244
                   Z -0.00968811  0.29016828  0.13569182 -0.01998568 -0.03525010

 TRANS. SAYVETZ    X  0.09209072 -0.06754839  1.67777762  7.08326428  1.73857156
                   Y  0.02494994 -0.00198052  1.58283023 -2.09624801  7.00807198
                   Z -0.00888108 -0.06365868  7.10192121 -1.20254845 -1.97183171
               TOTAL  0.09582314  0.09283929  7.46709945  7.48418408  7.48490643

   ROT. SAYVETZ    X  0.97278545 -7.89541093 -0.92480235  0.03342318  0.01427931
                   Y  0.65044040-12.45422842 -0.14365409 -0.09366536 -0.00499150
                   Z-19.16947152 -0.33267820 -0.02765859  0.21484938  0.12232573
               TOTAL 19.20515615 14.74977946  0.93630171  0.23675000  0.12325745

                            6           7           8           9          10
       FREQUENCY:         2.96      186.78      288.39      562.36      685.13  
        SYMMETRY:         A           A           A           A           A   
    REDUCED MASS:      4.08467     1.84245     3.58595     1.25400     2.78471
    IR INTENSITY:      0.15417     0.16499     0.16388     0.14980     0.25688

  1   O            X -0.01234015  0.00606839  0.12565701 -0.00200361  0.05187288
                   Y -0.01089709  0.00583637 -0.08574024 -0.00206345 -0.10333366
                   Z  0.18576520 -0.08248031  0.00275037  0.02874103 -0.00376338
  2   C            X  0.00367450 -0.00846366 -0.01912145  0.00087757 -0.12240605
                   Y  0.00438856 -0.00865163 -0.02975346  0.00077600 -0.01848340
                   Z -0.03231425  0.12185799 -0.00354111 -0.01143737 -0.00986579
  3   C            X  0.01208751  0.00785054 -0.06053046  0.00883224  0.01352048
                   Y  0.01267717  0.00801752 -0.04610538  0.00896389  0.14957050
                   Z -0.14037535 -0.11304003 -0.00732827 -0.12578291  0.01157184
  4   C            X  0.00221281 -0.00450490 -0.07149901 -0.00179724  0.03163038
                   Y  0.00363126 -0.00441680  0.14695902 -0.00167648  0.02597539
                   Z -0.00076685  0.06244359  0.00532069  0.02457703  0.00414344
  5   H            X  0.01318662 -0.03568379 -0.03582997 -0.02213740 -0.12910503
                   Y  0.01325604 -0.03627716  0.09046599 -0.02284462  0.02591695
                   Z -0.16669521  0.51106496  0.00343796  0.31788214 -0.00711449
  6   H            X  0.02673270  0.02372334  0.00981204 -0.02476972  0.13275790
                   Y  0.02648251  0.02409649 -0.08258720 -0.02520799  0.08164570
                   Z -0.33821838 -0.33751960 -0.00475927  0.35086716  0.01497374
  7   H            X -0.01245635 -0.02495989 -0.26075339  0.02843195  0.36339435
                   Y -0.01010892 -0.02463669  0.24535986  0.02906997 -0.15195201
                   Z  0.19631269  0.34690104 -0.00118261 -0.40392654  0.01449612
  8   H            X  0.00830414  0.00430023  0.09138800 -0.04379241 -0.27047864
                   Y  0.00958977  0.00446183  0.26131450 -0.04427998 -0.18562697
                   Z -0.07764653 -0.05995324  0.02494182  0.62030856 -0.03227306

 TRANS. SAYVETZ    X  0.05436516  0.00277184 -0.00085064  0.00014836 -0.00003608
                   Y  0.11359232  0.00013274  0.00037410 -0.00000148  0.00012113
                   Z  0.50055044 -0.00002995  0.00002114  0.00004869  0.00000361
               TOTAL  0.51614874  0.00277518  0.00092951  0.00015615  0.00012644

   ROT. SAYVETZ    X 12.27099343  0.00647777 -0.00356777 -0.00200656  0.00031690
                   Y  0.22115057 -0.01035541  0.00290867 -0.00010725 -0.00069248
                   Z  1.00804563 -0.01523298  0.00803587  0.00081573  0.00121923
               TOTAL 12.31431457  0.01952537  0.00926091  0.00216869  0.00143753

                           11          12          13          14          15
       FREQUENCY:       940.61     1001.92     1031.44     1039.17     1077.37  
        SYMMETRY:         A           A           A           A           A   
    REDUCED MASS:      3.17010     1.35940     1.16381     1.59106     1.47124
    IR INTENSITY:      1.43620     0.33373     0.40136     0.32710     0.12165

  1   O            X -0.02641209  0.00046043 -0.00165472 -0.00241740  0.00775463
                   Y -0.02527329  0.00043354 -0.00193391 -0.00224976 -0.04998594
                   Z -0.00367030 -0.00676041  0.02389145  0.03434732 -0.00297682
  2   C            X  0.17447555 -0.00158799  0.00665328  0.01037066 -0.02855306
                   Y -0.09549936 -0.00177321  0.00678916  0.01050665 -0.00472511
                   Z  0.00543578  0.02392662 -0.09552311 -0.14688673 -0.00257210
  3   C            X -0.03618334 -0.00443349  0.00052867 -0.00700859  0.00796819
                   Y  0.09594860 -0.00434396  0.00103134 -0.00751724  0.11842693
                   Z  0.00435063  0.06264902 -0.00729455  0.09898933  0.00937816
  4   C            X -0.08737793  0.00964446  0.00340451 -0.00051054  0.03911796
                   Y  0.04944360  0.00978347  0.00301755 -0.00005265 -0.09268377
                   Z -0.00248984 -0.13687510 -0.04599478  0.00512973 -0.00364325
  5   H            X  0.20112600  0.00637589 -0.02294943 -0.04221338 -0.01643582
                   Y -0.27414266  0.00619631 -0.02415279 -0.04284518 -0.10832047
                   Z -0.00567480 -0.08963963  0.32961843  0.60451852 -0.00778441
  6   H            X -0.16279794  0.01940245 -0.04219615  0.03191497 -0.38776328
                   Y  0.17616178  0.02019557 -0.04024344  0.02966134  0.33858670
                   Z  0.00083146 -0.27806864  0.57886686 -0.43118257 -0.00641193
  7   H            X  0.04349963 -0.02783436 -0.04474906  0.01516838 -0.37012467
                   Y -0.02442844 -0.02791350 -0.04358059  0.01348803  0.13114950
                   Z  0.00084473  0.39043591  0.61473466 -0.19522565 -0.01977551
  8   H            X -0.26949645 -0.04837091  0.01014673 -0.00041555  0.43056039
                   Y -0.07061631 -0.04901704  0.00962160  0.00043552  0.18168084
                   Z -0.02461984  0.68348506 -0.13048322 -0.01399055  0.04355768

 TRANS. SAYVETZ    X -0.00062494  0.00001892  0.00004201  0.00004151 -0.00002165
                   Y -0.00006609 -0.00000418 -0.00000098  0.00000199  0.00004221
                   Z  0.00001024  0.00001332  0.00002726  0.00000921  0.00000051
               TOTAL  0.00062851  0.00002351  0.00005009  0.00004256  0.00004745

   ROT. SAYVETZ    X  0.00047357  0.00112706  0.00010159  0.00036063  0.00004939
                   Y -0.00024708 -0.00096509 -0.00082063 -0.00115190  0.00007931
                   Z -0.00285371 -0.00013336 -0.00037037 -0.00038873 -0.00074422
               TOTAL  0.00290327  0.00148978  0.00090605  0.00126809  0.00075007

                           16          17          18          19          20
       FREQUENCY:      1325.78     1445.30     1452.91     1686.21     1806.53  
        SYMMETRY:         A           A           A           A           A   
    REDUCED MASS:      1.32245     1.16011     1.29819     4.71938     7.63548
    IR INTENSITY:      0.06056     0.06365     0.92942     1.66974     2.28649

  1   O            X  0.00867590 -0.04571492 -0.03572038 -0.01389365 -0.05065503
                   Y  0.01075396 -0.04089123 -0.02638711 -0.04685326 -0.13045911
                   Z  0.00137595 -0.00611350 -0.00438494 -0.00431862 -0.01286158
  2   C            X  0.00369440  0.04284065  0.06863208 -0.00518146  0.07004337
                   Y -0.00362652 -0.01918335 -0.03290246  0.07599062  0.20125092
                   Z  0.00001563  0.00161046  0.00244500  0.00505440  0.01928265
  3   C            X  0.03860095  0.06419134 -0.08700393  0.18025490 -0.06030093
                   Y  0.09048858  0.00687829  0.05617018 -0.02849673 -0.01116130
                   Z  0.00920653  0.00501678 -0.00212214  0.01065414 -0.00502423
  4   C            X -0.07578318  0.01897802 -0.02073679 -0.16993176  0.04934291
                   Y -0.07571162 -0.00089250 -0.02575607  0.00043960  0.00466070
                   Z -0.01075701  0.00129951 -0.00333706 -0.01197040  0.00382290
  5   H            X  0.03321487 -0.05955517  0.00600684 -0.00654853  0.10452283
                   Y -0.13323974  0.74278709  0.48158174  0.02500116 -0.14288096
                   Z -0.00728584  0.04896560  0.03489936  0.00139473 -0.00296126
  6   H            X  0.67490475 -0.08194179  0.23432577 -0.08720251  0.07668030
                   Y -0.25172668  0.09640544 -0.11655473  0.14082741 -0.09884334
                   Z  0.02964723  0.00101910  0.00838588  0.00400404 -0.00180415
  7   H            X -0.42888212 -0.33069041  0.33779788  0.16446416 -0.03901924
                   Y  0.10325106  0.17683346 -0.20562825 -0.19373070  0.06314466
                   Z -0.02300845 -0.01092203  0.00942357 -0.00202176  0.00155008
  8   H            X -0.01838532 -0.30264884  0.45397165  0.08831810 -0.04204044
                   Y -0.02168904 -0.20993845  0.28911227  0.20071679 -0.06953429
                   Z -0.00291239 -0.03641800  0.05278256  0.02065640 -0.00795054

 TRANS. SAYVETZ    X -0.00019021  0.00001486 -0.00046963 -0.00025193 -0.00027158
                   Y  0.00003541 -0.00002709  0.00010096 -0.00004492  0.00026680
                   Z  0.00000269  0.00000157  0.00000966  0.00000333  0.00000271
               TOTAL  0.00019349  0.00003094  0.00048046  0.00025592  0.00038071

   ROT. SAYVETZ    X -0.00028664 -0.00023325 -0.00017360  0.00020247 -0.00026653
                   Y  0.00026006  0.00012823  0.00010529 -0.00024544  0.00032135
                   Z  0.00032149  0.00152646 -0.00140547 -0.00088665 -0.00093375
               TOTAL  0.00050314  0.00154950  0.00142006  0.00094201  0.00102284

                           21          22          23          24
       FREQUENCY:      2924.44     3168.20     3182.04     3260.70  
        SYMMETRY:         A           A           A           A   
    REDUCED MASS:      1.08440     1.06060     1.09005     1.11776
    IR INTENSITY:      3.64801     0.19925     0.26388     0.08570

  1   O            X -0.00000481  0.00044669 -0.00010429  0.00020975
                   Y -0.00183170  0.00039754 -0.00025114  0.00023673
                   Z -0.00013100  0.00005858 -0.00002479  0.00003118
  2   C            X -0.07954458 -0.00259886 -0.00430318 -0.00049622
                   Y -0.00682502 -0.00042814  0.00205544 -0.00007922
                   Z -0.00604836 -0.00021250 -0.00015371 -0.00004046
  3   C            X  0.00258652 -0.01622917 -0.03937422 -0.00512803
                   Y  0.00146552 -0.03736206 -0.06026365 -0.00765679
                   Z  0.00029081 -0.00382276 -0.00709686 -0.00091153
  4   C            X -0.00027450 -0.05320666  0.03827203  0.00875615
                   Y  0.00011016 -0.00010838  0.01141552 -0.09352805
                   Z -0.00000978 -0.00376955  0.00352175 -0.00608477
  5   H            X  0.94523423  0.01737512  0.03866602 -0.00042067
                   Y  0.12086041  0.00066646 -0.00111846 -0.00085360
                   Z  0.07470582  0.00126724  0.00261141 -0.00008808
  6   H            X -0.03009407  0.24168057  0.38418138  0.04719337
                   Y -0.03316547  0.44145677  0.69930254  0.08145468
                   Z -0.00452902  0.04870499  0.07723723  0.00917072
  7   H            X  0.00608772  0.25574238 -0.19295593  0.30290054
                   Y  0.00485130  0.50204421 -0.37778531  0.56230942
                   Z  0.00073356  0.05407566 -0.04072173  0.06173296
  8   H            X -0.00143067  0.33565798 -0.16383596 -0.39026246
                   Y -0.00094799 -0.49918039  0.24072389  0.55905483
                   Z -0.00016115 -0.01204344  0.00566437  0.01247496

 TRANS. SAYVETZ    X  0.00012688 -0.00016050  0.00003985  0.00003097
                   Y  0.00002513  0.00004468 -0.00001563 -0.00001144
                   Z -0.00000048  0.00000361 -0.00000051 -0.00000016
               TOTAL  0.00012935  0.00016664  0.00004281  0.00003301

   ROT. SAYVETZ    X -0.00003830 -0.00002416 -0.00002303  0.00002014
                   Y  0.00003612  0.00002839  0.00002508 -0.00005004
                   Z  0.00030461 -0.00058470  0.00025957 -0.00006170
               TOTAL  0.00030913  0.00058588  0.00026179  0.00008195

 REFERENCE ON SAYVETZ CONDITIONS - A. SAYVETZ, J.CHEM.PHYS., 7, 383-389(1939).

 NOTE - THE MODES J,K ARE ORTHONORMALIZED ACCORDING TO
 SUM ON I   M(I) * (X(I,J)*X(I,K) + Y(I,J)*Y(I,K) + Z(I,J)*Z(I,K)) = DELTA(J,K)

  MODE FREQ(CM**-1)  SYMMETRY  RED. MASS  IR INTENS.
     1       4.960    A        4.257275    0.066557
     2       2.935    A        3.112544    0.000516
     3       0.204    A        6.613097    0.000732
     4       0.185    A        6.949515    0.000013
     5       0.057    A        6.983550    0.000004
     6       2.958    A        4.084669    0.154165
     7     186.784    A        1.842450    0.164990
     8     288.391    A        3.585947    0.163877
     9     562.359    A        1.254004    0.149798
    10     685.125    A        2.784714    0.256877
    11     940.609    A        3.170105    1.436200
    12    1001.921    A        1.359397    0.333735
    13    1031.441    A        1.163805    0.401365
    14    1039.172    A        1.591055    0.327104
    15    1077.375    A        1.471239    0.121651
    16    1325.775    A        1.322451    0.060563
    17    1445.298    A        1.160107    0.063652
    18    1452.906    A        1.298188    0.929422
    19    1686.211    A        4.719380    1.669741
    20    1806.534    A        7.635482    2.286487
    21    2924.435    A        1.084400    3.648011
    22    3168.198    A        1.060597    0.199252
    23    3182.037    A        1.090055    0.263878
    24    3260.695    A        1.117757    0.085700

     -------------------------------
     THERMOCHEMISTRY AT T=  298.15 K
     -------------------------------

 USING IDEAL GAS, RIGID ROTOR, HARMONIC NORMAL MODE APPROXIMATIONS.
 P=  1.01325E+05 PASCAL.
 ALL FREQUENCIES ARE SCALED BY   1.00000
 THE MOMENTS OF INERTIA ARE (IN AMU*BOHR**2)
             79.08876           290.40362           369.49237
 THE ROTATIONAL SYMMETRY NUMBER IS  1.0
 THE ROTATIONAL CONSTANTS ARE (IN GHZ)
     22.79829     6.20890     4.87991
      7 -     24 VIBRATIONAL MODES ARE USED IN THERMOCHEMISTRY.
 THE HARMONIC ZERO POINT ENERGY IS (SCALED BY   1.000)
        0.061659 HARTREE/MOLECULE    13532.633973 CM**-1/MOLECULE 
       38.691781 KCAL/MOL              161.886411 KJ/MOL

               Q               LN Q
 ELEC.     1.00000E+00       0.000000
 TRANS.    1.64832E+07      16.617850
 ROT.      3.29763E+04      10.403546
 VIB.      2.59741E+00       0.954514
 TOT.      1.41183E+12      27.975910

              E         H         G         CV        CP        S
           KJ/MOL    KJ/MOL    KJ/MOL   J/MOL-K   J/MOL-K   J/MOL-K
 ELEC.      0.000     0.000     0.000     0.000     0.000     0.000
 TRANS.     3.718     6.197   -41.195    12.472    20.786   158.954
 ROT.       3.718     3.718   -25.790    12.472    12.472    98.971
 VIB.     165.871   165.871   159.520    32.236    32.236    21.299
 TOTAL    173.307   175.786    92.536    57.179    65.494   279.224
 VIB. THERMAL CORRECTION E(T)-E(0) = H(T)-H(0) =      3984.094 J/MOL

              E         H         G         CV        CP        S
         KCAL/MOL  KCAL/MOL  KCAL/MOL CAL/MOL-K CAL/MOL-K CAL/MOL-K
 ELEC.      0.000     0.000     0.000     0.000     0.000     0.000
 TRANS.     0.889     1.481    -9.846     2.981     4.968    37.991
 ROT.       0.889     0.889    -6.164     2.981     2.981    23.655
 VIB.      39.644    39.644    38.126     7.705     7.705     5.091
 TOTAL     41.421    42.014    22.117    13.666    15.653    66.736
 VIB. THERMAL CORRECTION E(T)-E(0) = H(T)-H(0) =       952.221 CAL/MOL
 ......END OF NORMAL COORDINATE ANALYSIS......
 STEP CPU TIME =     0.01 TOTAL CPU TIME =        763.2 (     12.7 MIN)
 TOTAL WALL CLOCK TIME=        770.2 SECONDS, CPU UTILIZATION IS    99.09%
               1080583  WORDS OF DYNAMIC MEMORY USED
 EXECUTION OF GAMESS TERMINATED NORMALLY Tue Oct  4 21:38:15 2022
 DDI: 263640 bytes (0.3 MB / 0 MWords) used by master data server.

 ----------------------------------------
 CPU timing information for all processes
 ========================================
 0: 759.692 + 3.462 = 763.154
 ----------------------------------------
 ddikick.x: exited gracefully.
----- accounting info -----
Files used on the master node chemcompute-node-2.novalocal were:
-rw-r--r--. 1 chemcomp chemcomp      985 Oct  4 21:25 /scratch/120818/460775.F05
-rw-rw-r--. 1 chemcomp chemcomp 65536000 Oct  4 21:38 /scratch/120818/460775.F10
-rw-rw-r--. 1 chemcomp chemcomp  4143136 Oct  4 21:38 /scratch/120818/460775.F22
Tue Oct  4 21:38:18 UTC 2022
0.101u 0.029s 12:53.51 0.0%	0+0k 8+208io 0pf+0w
Finishing Up...
Looking for IR data...
Looking for Raman data...
vibramans not found
Looking for thermodynamics data...
Looking for UV-Vis data...
chemcompute.org
{'UTCtimestamp': '2022-10-04T21:38:20.937387', 'cluster': 'jetstream2', 'clusterJobNumber': '120818', 'status': 'COMPLETE', 'nodeList': 'chemcompute-node-2'}
120818
