chemcompute.org
{'UTCtimestamp': '2022-10-04T20:46:09.793164', 'cluster': 'jetstream2', 'clusterJobNumber': '120777', 'status': 'RUNNING', 'nodeList': 'chemcompute-node-1'}
----- GAMESS execution script 'rungms' -----
This job is running on host chemcompute-node-1.novalocal
under operating system Linux at Tue Oct 4 20:46:13 UTC 2022
SLURM has assigned the following compute nodes to this run:
Available scratch disk space (Kbyte units) at beginning of the job is
Filesystem     1K-blocks     Used Available Use% Mounted on
/dev/sda1       62903276 10942616  51960660  18% /
GAMESS temporary binary files will be written to /scratch/120777
GAMESS supplementary output files will be written to /data/slurm/46/460731
Copying input file 460731.inp to your run's scratch directory...
The generated host list is
chemcompute-node-1.novalocal

 Distributed Data Interface kickoff program.
 Initiating 1 compute processes on 1 nodes to run the following command:
 /data/gamess-2019R1-avx2-ddi/gamess.00.x 460731 

          ******************************************************
          *         GAMESS VERSION = 30 JUN 2019 (R1)          *
          *             FROM IOWA STATE UNIVERSITY             *
          * M.W.SCHMIDT, K.K.BALDRIDGE, J.A.BOATZ, S.T.ELBERT, *
          *   M.S.GORDON, J.H.JENSEN, S.KOSEKI, N.MATSUNAGA,   *
          *          K.A.NGUYEN, S.J.SU, T.L.WINDUS,           *
          *       TOGETHER WITH M.DUPUIS, J.A.MONTGOMERY       *
          *         J.COMPUT.CHEM.  14, 1347-1363(1993)        *
          **************** 64 BIT INTEL VERSION ****************

  SINCE 1993, STUDENTS AND POSTDOCS WORKING AT IOWA STATE UNIVERSITY
  AND ALSO IN THEIR VARIOUS JOBS AFTER LEAVING ISU HAVE MADE IMPORTANT
  CONTRIBUTIONS TO THE CODE:
     IVANA ADAMOVIC, CHRISTINE AIKENS, YURI ALEXEEV, POOJA ARORA,
     ANDREY ASADCHEV, ROB BELL, PRADIPTA BANDYOPADHYAY, JONATHAN BENTZ,
     COLLEEN BERTONI, BRETT BODE, KURT BRORSEN, CALEB CARLIN, GALINA CHABAN,
     WEI CHEN, CHEOL HO CHOI, PAUL DAY, ALBERT DEFUSCO, NUWAN DESILVA,
     TIM DUDLEY, DMITRI FEDOROV, ALEX FINDLATER, GRAHAM FLETCHER, 
     MARK FREITAG, KURT GLAESEMANN, ANASTASIA GUNINA,
     DAN KEMP, GRANT MERRILL, NORIYUKI MINEZAWA, JONATHAN MULLIN,
     TAKESHI NAGATA, SEAN NEDD, HEATHER NETZLOFF, BOSILJKA NJEGIC, RYAN OLSON,
     MIKE PAK, BUU PHAM,
     SPENCER PRUITT, LUKE ROSKOP, JIM SHOEMAKER, LYUDMILA SLIPCHENKO,
     TONY SMITH, SAROM SOK LEANG, JIE SONG, TETSUYA TAKETSUGU, SIMON WEBB,
     PENG XU, SOOHAENG YOO, FEDERICO ZAHARIEV

  ADDITIONAL CODE HAS BEEN PROVIDED BY COLLABORATORS IN OTHER GROUPS:
     IOWA STATE UNIVERSITY:
          JOE IVANIC, AARON WEST, LAIMUTIS BYTAUTAS, KLAUS RUEDENBERG
     UNIVERSITY OF TOKYO: KIMIHIKO HIRAO, TAKAHITO NAKAJIMA,
          TAKAO TSUNEDA, MUNEAKI KAMIYA, SUSUMU YANAGISAWA,
          KIYOSHI YAGI, MAHITO CHIBA, SEIKEN TOKURA, NAOAKI KAWAKAMI
     UNIVERSITY OF AARHUS: FRANK JENSEN
     UNIVERSITY OF IOWA: VISVALDAS KAIRYS, HUI LI
     NATIONAL INST. OF STANDARDS AND TECHNOLOGY: WALT STEVENS, DAVID GARMER
     UNIVERSITY OF PISA: BENEDETTA MENNUCCI, JACOPO TOMASI
     UNIVERSITY OF MEMPHIS: HENRY KURTZ, PRAKASHAN KORAMBATH
     UNIVERSITY OF ALBERTA: TOBY ZENG, MARIUSZ KLOBUKOWSKI
     UNIVERSITY OF NEW ENGLAND: MARK SPACKMAN
     MIE UNIVERSITY: HIROAKI UMEDA
     NAT. INST. OF ADVANCED INDUSTRIAL SCIENCE AND TECHNOLOGY: KAZUO KITAURA
     MICHIGAN STATE UNIVERSITY:
          KAROL KOWALSKI, MARTA WLOCH, JEFFREY GOUR, JESSE LUTZ,
          WEI LI, JUN SHEN, J. EMILIANO DEUSTUA, PIOTR PIECUCH
     UNIVERSITY OF MINNESOTA:
          YINAN SHU
     UNIVERSITY OF SILESIA: MONIKA MUSIAL, STANISLAW KUCHARSKI
     FACULTES UNIVERSITAIRES NOTRE-DAME DE LA PAIX:
          OLIVIER QUINET, BENOIT CHAMPAGNE
     UNIVERSITY OF CALIFORNIA - SANTA BARBARA: BERNARD KIRTMAN
     INSTITUTE FOR MOLECULAR SCIENCE:
          KAZUYA ISHIMURA, MICHIO KATOUDA, AND SHIGERU NAGASE
     UNIVERSITY OF NOTRE DAME: ANNA POMOGAEVA, DAN CHIPMAN
     KYUSHU UNIVERSITY:
          HARUYUKI NAKANO,
          FENG LONG GU, JACEK KORCHOWIEC, MARCIN MAKOWSKI, AND YURIKO AOKI,
          HIROTOSHI MORI AND EISAKU MIYOSHI
     PENNSYLVANIA STATE UNIVERSITY:
          TZVETELIN IORDANOV, CHET SWALINA, JONATHAN SKONE,
          SHARON HAMMES-SCHIFFER
     WASEDA UNIVERSITY:
          MASATO KOBAYASHI, TOMOKO AKAMA, TSUGUKI TOUMA,
          TAKESHI YOSHIKAWA, YASUHIRO IKABATA, JUNJI SEINO,
          YUYA NAKAJIMA, HIROMI NAKAI
     NANJING UNIVERSITY: SHUHUA LI
     UNIVERSITY OF NEBRASKA:
          PEIFENG SU, DEJUN SI, NANDUN THELLAMUREGE, YALI WANG, HUI LI
     UNIVERSITY OF ZURICH: ROBERTO PEVERATI, KIM BALDRIDGE
     N. COPERNICUS UNIVERSITY AND JACKSON STATE UNIVERSITY:
          MARIA BARYSZ
     UNIVERSITY OF COPENHAGEN: Jimmy Kromann, CASPER STEINMANN
     TOKYO INSTITUTE OF TECHNOLOGY: HIROYA NAKATA
     NAGOYA UNIVERSITY: YOSHIO NISHIMOTO, STEPHAN IRLE
     MOSCOW STATE UNIVERSITY: VLADIMIR MIRONOV
     A.N.NESMEYANOV INSTITUTE OF ORGANOELEMENT COMPOUNDS OF RUSSIAN ACADEMY OF SCIENCES:
          IGOR S. GERASIMOV

 EXECUTION OF GAMESS BEGUN Tue Oct  4 20:46:14 2022

            ECHO OF THE FIRST FEW INPUT CARDS -
 INPUT CARD>!                                                                               
 INPUT CARD>!   GAMESS Calculation input file                                               
 INPUT CARD>!   molecula de prueba                                                          
 INPUT CARD>!                                                                               
 INPUT CARD> $CONTRL SCFTYP=RHF MAXIT=200 RUNTYP=OPTIMIZE                                   
 INPUT CARD>         COORD=UNIQUE MULT=1                                                    
 INPUT CARD>         ICHARG=0                                                               
 INPUT CARD>         DFTTYP=B3LYP                                                           
 INPUT CARD>         MOLPLT=.FALSE. PLTORB=.FALSE.  $END                                    
 INPUT CARD> $SYSTEM TIMLIM=2879 MWORDS=250  $END                                           
 INPUT CARD>                                                                                
 INPUT CARD> $FORCE METHOD=SEMINUM NVIB=2 $END                                              
 INPUT CARD> $STATPT OPTTOL=0.0005 NSTEP=999 $END                                           
 INPUT CARD> $STATPT IHREP=0 HSSEND=.TRUE.  $END                                            
 INPUT CARD>                                                                                
 INPUT CARD> $DFT    METHOD=GRID  NLEB=590  $END                                            
 INPUT CARD>                                                                                
 INPUT CARD> $BASIS  GBASIS=N31 NGAUSS=6                                                    
 INPUT CARD>         NDFUNC=1   NPFUNC=0  $END                                              
 INPUT CARD>                                                                                
 INPUT CARD> $SCF    DIRSCF=.T. $END                                                        
 INPUT CARD> $GUESS  GUESS=HUCKEL  $END                                                     
 INPUT CARD>                                                                                
 INPUT CARD> $DATA                                                                          
 INPUT CARD>   molecula de prueba                                                           
 INPUT CARD>  Cs                                                                            
 INPUT CARD>                                                                                
 INPUT CARD>C     6.0     0.40     0.27    -0.00                                            
 INPUT CARD>C     6.0    -0.68     1.07    -0.00                                            
 INPUT CARD>C     6.0     0.29    -1.22     0.00                                            
 INPUT CARD>H     1.0     1.39     0.70    -0.00                                            
 INPUT CARD>H     1.0    -1.68     0.66     0.00                                            
 INPUT CARD>H     1.0    -0.57     2.15    -0.00                                            
 INPUT CARD>H     1.0    -0.24    -1.57    -0.89                                            
 INPUT CARD>H     1.0     1.28    -1.67     0.00                                            
 INPUT CARD> $END                                                                           
 INPUT CARD>                                                                                
 INPUT CARD>                                                                                
 INPUT CARD>! Customizations after this line are persisted when using Do More Calculations  
  250000000 WORDS OF MEMORY AVAILABLE

     BASIS OPTIONS
     -------------
     GBASIS=N31          IGAUSS=       6      POLAR=POPN31  
     NDFUNC=       1     NFFUNC=       0     DIFFSP=       F
     NPFUNC=       0      DIFFS=       F     BASNAM=        


     RUN TITLE
     ---------
    molecula de prueba                                                           

 THE POINT GROUP OF THE MOLECULE IS CS      
 THE ORDER OF THE PRINCIPAL AXIS IS     0

 ATOM      ATOMIC                      COORDINATES (BOHR)
           CHARGE         X                   Y                   Z
 C           6.0     0.7558903951        0.5102260167        0.0000000000
 C           6.0    -1.2850136717        2.0220068069        0.0000000000
 C           6.0     0.5480205364       -2.3054657050        0.0000000000
 H           1.0     2.6267191229        1.3228081914        0.0000000000
 H           1.0    -3.1747396594        1.2472191519        0.0000000000
 H           1.0    -1.0771438130        4.0629108736        0.0000000000
 H           1.0    -0.4535342371       -2.9668698007        1.6818561291
 H           1.0    -0.4535342371       -2.9668698007       -1.6818561291
 H           1.0     2.4188492643       -3.1558423995        0.0000000000

          INTERNUCLEAR DISTANCES (ANGS.)
          ------------------------------

                1 C          2 C          3 C          4 H          5 H     

   1 C       0.0000000    1.3440238 *  1.4940549 *  1.0793517 *  2.1162467 *
   2 C       1.3440238 *  0.0000000    2.4869660 *  2.1028076 *  1.0807868 *
   3 C       1.4940549 *  2.4869660 *  0.0000000    2.2127811 *  2.7231048 *
   4 H       1.0793517 *  2.1028076 *  2.2127811 *  0.0000000    3.0702606  
   5 H       2.1162467 *  1.0807868 *  2.7231048 *  3.0702606    0.0000000  
   6 H       2.1154905 *  1.0855874 *  3.4780023    2.4380525 *  1.8580097 *
   7 H       2.1417983 *  2.8205141 *  1.0933892 *  2.9328996 *  2.7997500 *
   8 H       2.1417983 *  2.8205141 *  1.0933892 *  2.9328996 *  2.7997500 *
   9 H       2.1302582 *  3.3688574    1.0874741 *  2.3725514 *  3.7670280  

                6 H          7 H          8 H          9 H     

   1 C       2.1154905 *  2.1417983 *  2.1417983 *  2.1302582 *
   2 C       1.0855874 *  2.8205141 *  2.8205141 *  3.3688574  
   3 C       3.4780023    1.0933892 *  1.0933892 *  1.0874741 *
   4 H       2.4380525 *  2.9328996 *  2.9328996 *  2.3725514 *
   5 H       1.8580097 *  2.7997500 *  2.7997500 *  3.7670280  
   6 H       0.0000000    3.8391926    3.8391926    4.2443963  
   7 H       3.8391926    0.0000000    1.7800000 *  1.7642279 *
   8 H       3.8391926    1.7800000 *  0.0000000    1.7642279 *
   9 H       4.2443963    1.7642279 *  1.7642279 *  0.0000000  

  * ... LESS THAN  3.000


     ATOMIC BASIS SET
     ----------------
 THE CONTRACTED PRIMITIVE FUNCTIONS HAVE BEEN UNNORMALIZED
 THE CONTRACTED BASIS FUNCTIONS ARE NOW NORMALIZED TO UNITY

  SHELL TYPE  PRIMITIVE        EXPONENT          CONTRACTION COEFFICIENT(S)

 C         

      1   S       1          3047.5248800    0.001834737132
      1   S       2           457.3695180    0.014037322813
      1   S       3           103.9486850    0.068842622264
      1   S       4            29.2101553    0.232184443216
      1   S       5             9.2866630    0.467941348435
      1   S       6             3.1639270    0.362311985337

      2   L       7             7.8682723   -0.119332419775    0.068999066591
      2   L       8             1.8812885   -0.160854151696    0.316423960957
      2   L       9             0.5442493    1.143456437840    0.744308290898

      3   L      10             0.1687145    1.000000000000    1.000000000000

      4   D      11             0.8000000    1.000000000000

 C         

      5   S      12          3047.5248800    0.001834737132
      5   S      13           457.3695180    0.014037322813
      5   S      14           103.9486850    0.068842622264
      5   S      15            29.2101553    0.232184443216
      5   S      16             9.2866630    0.467941348435
      5   S      17             3.1639270    0.362311985337

      6   L      18             7.8682723   -0.119332419775    0.068999066591
      6   L      19             1.8812885   -0.160854151696    0.316423960957
      6   L      20             0.5442493    1.143456437840    0.744308290898

      7   L      21             0.1687145    1.000000000000    1.000000000000

      8   D      22             0.8000000    1.000000000000

 C         

      9   S      23          3047.5248800    0.001834737132
      9   S      24           457.3695180    0.014037322813
      9   S      25           103.9486850    0.068842622264
      9   S      26            29.2101553    0.232184443216
      9   S      27             9.2866630    0.467941348435
      9   S      28             3.1639270    0.362311985337

     10   L      29             7.8682723   -0.119332419775    0.068999066591
     10   L      30             1.8812885   -0.160854151696    0.316423960957
     10   L      31             0.5442493    1.143456437840    0.744308290898

     11   L      32             0.1687145    1.000000000000    1.000000000000

     12   D      33             0.8000000    1.000000000000

 H         

     13   S      34            18.7311370    0.033494604338
     13   S      35             2.8253944    0.234726953484
     13   S      36             0.6401217    0.813757326146

     14   S      37             0.1612778    1.000000000000

 H         

     15   S      38            18.7311370    0.033494604338
     15   S      39             2.8253944    0.234726953484
     15   S      40             0.6401217    0.813757326146

     16   S      41             0.1612778    1.000000000000

 H         

     17   S      42            18.7311370    0.033494604338
     17   S      43             2.8253944    0.234726953484
     17   S      44             0.6401217    0.813757326146

     18   S      45             0.1612778    1.000000000000

 H         

     21   S      46            18.7311370    0.033494604338
     21   S      47             2.8253944    0.234726953484
     21   S      48             0.6401217    0.813757326146

     22   S      49             0.1612778    1.000000000000

 H         

     23   S      50            18.7311370    0.033494604338
     23   S      51             2.8253944    0.234726953484
     23   S      52             0.6401217    0.813757326146

     24   S      53             0.1612778    1.000000000000

 TOTAL NUMBER OF BASIS SET SHELLS             =   24
 NUMBER OF CARTESIAN GAUSSIAN BASIS FUNCTIONS =   57
 NUMBER OF ELECTRONS                          =   24
 CHARGE OF MOLECULE                           =    0
 SPIN MULTIPLICITY                            =    1
 NUMBER OF OCCUPIED ORBITALS (ALPHA)          =   12
 NUMBER OF OCCUPIED ORBITALS (BETA )          =   12
 TOTAL NUMBER OF ATOMS                        =    9
 THE NUCLEAR REPULSION ENERGY IS       70.8647410352

 SELECTED MURRAY-HANDY-LAMING RADIAL GRID

 LEGACY BECKE'S FUZZY CELL METHOD

 SELECTED ORIGINAL BECKE'S PARTITION FUNCTION

     LEBEDEV GRID-BASED DFT OPTIONS
     ------------------------------
     DFTTYP=B3LYP   
     NRAD  =      96     NLEB  =     590
     NRAD0 =      24     NLEB0 =     110
     SWOFF =    5.00E-03 (PURE SCF -> DFT)
     SWITCH=    3.00E-04 (COARSE -> TIGHT GRID)
     THRESH=    0.00E+00 GTHRE=    1.00E+00

 GRIMME'S EMPIRICAL DISPERSION CORRECTION= F

     $CONTRL OPTIONS
     ---------------
 SCFTYP=RHF          RUNTYP=OPTIMIZE     EXETYP=RUN     
 MPLEVL=       0     CITYP =NONE         CCTYP =NONE         VBTYP =NONE    
 DFTTYP=B3LYP        TDDFT =NONE    
 MULT  =       1     ICHARG=       0     NZVAR =       0     COORD =UNIQUE  
 PP    =NONE         RELWFN=NONE         LOCAL =NONE         NUMGRD=       F
 ISPHER=      -1     NOSYM =       0     MAXIT =     200     UNITS =ANGS    
 PLTORB=       F     MOLPLT=       F     AIMPAC=       F     FRIEND=        
 NPRINT=       7     IREST =       0     GEOM  =INPUT   
 NORMF =       0     NORMP =       0     ITOL  =      20     ICUT  =       9
 INTTYP=BEST         GRDTYP=BEST         QMTTOL= 1.0E-06

     $SYSTEM OPTIONS
     ---------------
  REPLICATED MEMORY=   250000000 WORDS (ON EVERY NODE).
 DISTRIBUTED MEMDDI=           0 MILLION WORDS IN AGGREGATE,
 MEMDDI DISTRIBUTED OVER   1 PROCESSORS IS           0 WORDS/PROCESSOR.
 TOTAL MEMORY REQUESTED ON EACH PROCESSOR=   250000000 WORDS.
 TIMLIM=        2879.00 MINUTES, OR       2.0 DAYS.
 PARALL= F  BALTYP=  DLB     KDIAG=    0  COREFL= F
 MXSEQ2=     300 MXSEQ3=     150  mem10=         0

          ----------------
          PROPERTIES INPUT
          ----------------

     MOMENTS            FIELD           POTENTIAL          DENSITY
 IEMOM =       1   IEFLD =       0   IEPOT =       0   IEDEN =       0
 WHERE =COMASS     WHERE =NUCLEI     WHERE =NUCLEI     WHERE =NUCLEI  
 OUTPUT=BOTH       OUTPUT=BOTH       OUTPUT=BOTH       OUTPUT=BOTH    
 IEMINT=       0   IEFINT=       0                     IEDINT=       0
                                                       MORB  =       0
          EXTRAPOLATION IN EFFECT
          DIIS IN EFFECT
 ORBITAL PRINTING OPTION: NPREO=     1    57     2     1

     -------------------------------
     INTEGRAL TRANSFORMATION OPTIONS
     -------------------------------
     NWORD  =            0
     CUTOFF = 1.0E-09     MPTRAN =       0
     DIRTRF =       T     AOINTS =DUP     

          ----------------------
          INTEGRAL INPUT OPTIONS
          ----------------------
 NOPK  =       1 NORDER=       0 SCHWRZ=       T

     ------------------------------------------
     THE POINT GROUP IS CS , NAXIS= 0, ORDER= 2
     ------------------------------------------

     DIMENSIONS OF THE SYMMETRY SUBSPACES ARE
 A'  =   43     A'' =   14

 ..... DONE SETTING UP THE RUN .....
 STEP CPU TIME =     0.01 TOTAL CPU TIME =          0.0 (      0.0 MIN)
 TOTAL WALL CLOCK TIME=          0.0 SECONDS, CPU UTILIZATION IS    33.33%


          -----------------------------
          STATIONARY POINT LOCATION RUN
          -----------------------------

 OBTAINING INITIAL HESSIAN, HESS=GUESS   
 CARTESIAN COORDINATE OPTIMIZATION USING BADGER'S RULE FORCE CONSTANT GUESS

          PARAMETERS CONTROLLING GEOMETRY SEARCH ARE
          METHOD =QA                  UPHESS =BFGS    
          NNEG   =         0          NFRZ   =         0
          NSTEP  =       999          IFOLOW =         1
          HESS   =GUESS               RESTAR =         F
          IHREP  =         0          HSSEND =         T
          NPRT   =         0          NPUN   =         0
          OPTTOL = 5.000E-04          RMIN   = 1.500E-03
          RMAX   = 1.000E-01          RLIM   = 7.000E-02
          DXMAX  = 3.000E-01          PURIFY =         F
          MOVIE  =         F          TRUPD  =         T
          TRMAX  = 5.000E-01          TRMIN  = 5.000E-02
          ITBMAT =         5          STPT   =         F
          STSTEP = 1.000E-02          PROJCT=          T

 BEGINNING GEOMETRY SEARCH POINT NSERCH=   0 ...

 COORDINATES OF SYMMETRY UNIQUE ATOMS (ANGS)
   ATOM   CHARGE       X              Y              Z
 ------------------------------------------------------------
 C           6.0   0.4000000000   0.2700000000   0.0000000000
 C           6.0  -0.6800000000   1.0700000000   0.0000000000
 C           6.0   0.2900000000  -1.2200000000   0.0000000000
 H           1.0   1.3900000000   0.7000000000   0.0000000000
 H           1.0  -1.6800000000   0.6600000000   0.0000000000
 H           1.0  -0.5700000000   2.1500000000   0.0000000000
 H           1.0  -0.2400000000  -1.5700000000  -0.8900000000
 H           1.0   1.2800000000  -1.6700000000   0.0000000000
 COORDINATES OF ALL ATOMS ARE (ANGS)
   ATOM   CHARGE       X              Y              Z
 ------------------------------------------------------------
 C           6.0   0.4000000000   0.2700000000   0.0000000000
 C           6.0  -0.6800000000   1.0700000000   0.0000000000
 C           6.0   0.2900000000  -1.2200000000   0.0000000000
 H           1.0   1.3900000000   0.7000000000   0.0000000000
 H           1.0  -1.6800000000   0.6600000000   0.0000000000
 H           1.0  -0.5700000000   2.1500000000   0.0000000000
 H           1.0  -0.2400000000  -1.5700000000   0.8900000000
 H           1.0  -0.2400000000  -1.5700000000  -0.8900000000
 H           1.0   1.2800000000  -1.6700000000   0.0000000000

          ********************
          1 ELECTRON INTEGRALS
          ********************
 ...... END OF ONE-ELECTRON INTEGRALS ......
 STEP CPU TIME =     0.01 TOTAL CPU TIME =          0.0 (      0.0 MIN)
 TOTAL WALL CLOCK TIME=          0.0 SECONDS, CPU UTILIZATION IS    40.00%

          -------------
          GUESS OPTIONS
          -------------
          GUESS =HUCKEL            NORB  =       0          NORDER=       0
          MIX   =       F          PRTMO =       F          PUNMO =       F
          TOLZ  = 1.0E-08          TOLE  = 1.0E-05
          SYMDEN=       F          PURIFY=       F

 INITIAL GUESS ORBITALS GENERATED BY HUCKEL   ROUTINE.
 HUCKEL GUESS REQUIRES     32010 WORDS.

 SYMMETRIES FOR INITIAL GUESS ORBITALS FOLLOW.   BOTH SET(S).
    12 ORBITALS ARE OCCUPIED (    3 CORE ORBITALS).
     4=A'       5=A'       6=A'       7=A'       8=A''      9=A'      10=A'  
    11=A'      12=A''     13=A''     14=A'      15=A'      16=A''     17=A'  
    18=A'      19=A'      20=A'      21=A'      22=A'  
 ...... END OF INITIAL ORBITAL SELECTION ......
 STEP CPU TIME =     0.00 TOTAL CPU TIME =          0.0 (      0.0 MIN)
 TOTAL WALL CLOCK TIME=          0.1 SECONDS, CPU UTILIZATION IS    25.00%

                    ----------------------
                    AO INTEGRAL TECHNOLOGY
                    ----------------------
     S,P,L SHELL ROTATED AXIS INTEGRALS, REPROGRAMMED BY
        KAZUYA ISHIMURA (IMS) AND JOSE SIERRA (SYNSTAR).
     S,P,D,L SHELL ROTATED AXIS INTEGRALS PROGRAMMED BY
        KAZUYA ISHIMURA (INSTITUTE FOR MOLECULAR SCIENCE).
     S,P,D,F,G SHELL TO TOTAL QUARTET ANGULAR MOMENTUM SUM 5,
        ERIC PROGRAM BY GRAHAM FLETCHER (ELORET AND NASA ADVANCED
        SUPERCOMPUTING DIVISION, AMES RESEARCH CENTER).
     S,P,D,F,G,L SHELL GENERAL RYS QUADRATURE PROGRAMMED BY
        MICHEL DUPUIS (PACIFIC NORTHWEST NATIONAL LABORATORY).

          --------------------
          2 ELECTRON INTEGRALS
          --------------------

 DIRECT SCF METHOD SKIPS INTEGRAL STORAGE ON DISK.
 DIRECT TRANSFORMATION SKIPS AO INTEGRAL STORAGE ON DISK.
  ...... END OF TWO-ELECTRON INTEGRALS .....
 STEP CPU TIME =     0.02 TOTAL CPU TIME =          0.0 (      0.0 MIN)
 TOTAL WALL CLOCK TIME=          0.1 SECONDS, CPU UTILIZATION IS    40.00%

          --------------------------
             R-B3LYP SCF CALCULATION
          --------------------------

     NUCLEAR ENERGY =        70.8647410352
     MAXIT =  200     NPUNCH=    2
     EXTRAP=T  DAMP=F  SHIFT=F  RSTRCT=F  DIIS=T  DEM=F  SOSCF=F
         DENSITY MATRIX CONVERGENCE THRESHOLD=  2.00E-05
     COARSE -> FINE DFT GRID SWITCH THRESHOLD=  3.00E-04 (SWITCH IN $DFT)
                   HF -> DFT SWITCH THRESHOLD=  5.00E-03 (SWOFF IN $DFT)
     MEMORY REQUIRED FOR RHF ITERS=    668725 WORDS.

 DIRECT SCF CALCULATION, SCHWRZ=T   FDIFF=T,  DIRTHR=  0.00E+00 NITDIR=10
 SCHWARZ INEQUALITY OVERHEAD:      1653 INTEGRALS, T=        0.00

 DFT CODE IS SWITCHING FROM THE FINE GRID NRAD= 96,  NLEB=  590
                      TO THE COARSE GRID NRAD0= 24, NLEB0=  110

     EXCHANGE FUNCTIONAL   =B88&HFX   
     CORRELATION FUNCTIONAL=LYP88&VWN5
     DFT THRESHOLD         =.785E-08
     GRID CHANGE THRESHOLD =.300E-03
 FOR AN EULER-MACLAURIN QUADRATURE USING  96 RADIAL POINTS:
 SMALLEST GAUSSIAN PRIMITIVE EXPONENT=        0.1612777588 OF TYPE -S-
 ON ATOM NUMBER   4 HAS RADIAL NORMALIZATION=  1.000000
  LARGEST GAUSSIAN PRIMITIVE EXPONENT=     3047.5248800000 OF TYPE -S-
 ON ATOM NUMBER   1 HAS RADIAL NORMALIZATION=  1.000000
 DFT IS SWITCHED OFF, PERFORMING PURE SCF UNTIL SWOFF THRESHOLD IS REACHED.

                                                                                   NONZERO     BLOCKS
 ITER EX DEM     TOTAL ENERGY        E CHANGE  DENSITY CHANGE    DIIS ERROR      INTEGRALS    SKIPPED
          * * *   INITIATING DIIS PROCEDURE   * * *
   1  0  0     -116.7936672070  -116.7936672070   0.130439461   0.323733536         720043       1226
   2  1  0     -117.0486414451    -0.2549742381   0.083363861   0.074346422         719640       1419
   3  2  0     -117.0630791518    -0.0144377067   0.021223166   0.025722584         718812       1689
   4  3  0     -117.0662837706    -0.0032046188   0.007376560   0.005801506         716960       2039
   5  4  0     -117.0664778987    -0.0001941281   0.003292072   0.001998531         714899       2279
 CONVERGED TO SWOFF, SO DFT CALCULATION IS NOW SWITCHED ON.
          * * *   INITIATING DIIS PROCEDURE   * * *
   6  5  0     -117.8013558316    -0.7348779329   0.054059265   0.075860473         720051       1224
   7  6  0     -117.8124488675    -0.0110930359   0.030038448   0.026351688         719056       1628
   8  7  0     -117.8128008678    -0.0003520003   0.015883208   0.024856264         717720       1836
   9  8  0     -117.8144745334    -0.0016736656   0.004346727   0.003694408         716328       2052
  10  9  0     -117.8145152173    -0.0000406839   0.000832617   0.000623351         709871       2959
  11 10  0     -117.8145171383    -0.0000019210   0.000139740   0.000093124         704511       3553
 DFT CODE IS SWITCHING BACK TO THE FINE GRID
          * * *   INITIATING DIIS PROCEDURE   * * *
  12 11  0     -117.8157557671    -0.0012386287   0.000774540   0.000653324         720091       1205
  13 12  0     -117.8157581907    -0.0000024236   0.000100594   0.000170237         710289       2910
  14 13  0     -117.8157582257    -0.0000000351   0.000099274   0.000086157         699434       4184
  15 14  0     -117.8157582424    -0.0000000166   0.000051445   0.000033567         690243       4870
  16 15  0     -117.8157582475    -0.0000000051   0.000014379   0.000011121         676792       6207
  17 16  0     -117.8157582480    -0.0000000006   0.000001283   0.000001675         667242       6986

          -----------------
          DENSITY CONVERGED
          -----------------
     TIME TO FORM FOCK OPERATORS=       6.1 SECONDS (       0.4 SEC/ITER)
     FOCK TIME ON FIRST ITERATION=       0.0, LAST ITERATION=       0.9
     TIME TO SOLVE SCF EQUATIONS=       0.1 SECONDS (       0.0 SEC/ITER)

 FINAL R-B3LYP ENERGY IS     -117.8157582480 AFTER  17 ITERATIONS
 DFT EXCHANGE + CORRELATION ENERGY =       -14.8754203839
 TOTAL ELECTRON NUMBER             =        24.0000005057

          ------------
          EIGENVECTORS
          ------------

                      1          2          3          4          5
                  -10.1808   -10.1723   -10.1673    -0.7766    -0.6744
                     A'         A'         A'         A'         A'  
    1  C  1  S    0.992207  -0.015899  -0.030143  -0.153092   0.035386
    2  C  1  S    0.049238  -0.000971  -0.001996   0.297447  -0.071125
    3  C  1  X   -0.000003   0.000032   0.000338  -0.052373   0.082493
    4  C  1  Y   -0.000177   0.000191  -0.000216  -0.014084  -0.173110
    5  C  1  Z    0.000000   0.000000   0.000000   0.000000   0.000000
    6  C  1  S   -0.014594   0.004081   0.004910   0.196522  -0.054281
    7  C  1  X    0.001315   0.000308  -0.001699   0.010229   0.011702
    8  C  1  Y    0.000822  -0.002619   0.001310  -0.002705  -0.041951
    9  C  1  Z    0.000000   0.000000   0.000000   0.000000   0.000000
   10  C  1 XX   -0.009138   0.000030   0.000021   0.001958  -0.007643
   11  C  1 YY   -0.009230  -0.000289   0.000007   0.004193   0.011438
   12  C  1 ZZ   -0.009559   0.000014   0.000161  -0.015693   0.003117
   13  C  1 XY   -0.000134   0.000023   0.000045  -0.001357   0.007200
   14  C  1 XZ    0.000000   0.000000   0.000000   0.000000   0.000000
   15  C  1 YZ    0.000000   0.000000   0.000000   0.000000   0.000000
   16  C  2  S    0.029651  -0.001717   0.992266  -0.112376   0.138014
   17  C  2  S    0.000930  -0.000260   0.049286   0.214423  -0.269129
   18  C  2  X   -0.000283   0.000000  -0.000035   0.063424  -0.033355
   19  C  2  Y    0.000235   0.000099  -0.000009  -0.058623  -0.000060
   20  C  2  Z    0.000000   0.000000   0.000000   0.000000   0.000000
   21  C  2  S    0.004525   0.000521  -0.013355   0.164404  -0.223424
   22  C  2  X    0.001126   0.000524  -0.000882   0.005793   0.006856
   23  C  2  Y   -0.001709  -0.000466   0.000711  -0.009725  -0.007814
   24  C  2  Z    0.000000   0.000000   0.000000   0.000000   0.000000
   25  C  2 XX   -0.000579   0.000108  -0.009301   0.004063  -0.003609
   26  C  2 YY   -0.000489   0.000058  -0.009371   0.002979  -0.002012
   27  C  2 ZZ   -0.000417  -0.000087  -0.009772  -0.012059   0.013682
   28  C  2 XY    0.000052  -0.000032  -0.000113  -0.004573  -0.001664
   29  C  2 XZ    0.000000   0.000000   0.000000   0.000000   0.000000
   30  C  2 YZ    0.000000   0.000000   0.000000   0.000000   0.000000
   31  C  3  S    0.015724   0.992762   0.001214  -0.119778  -0.146708
   32  C  3  S    0.000635   0.050148  -0.000049   0.225597   0.287254
   33  C  3  X   -0.000118   0.000003   0.000032  -0.000334   0.015274
   34  C  3  Y   -0.000279   0.000087  -0.000042   0.061770  -0.035735
   35  C  3  Z    0.000000   0.000000   0.000000   0.000000   0.000000
   36  C  3  S    0.003313  -0.017386  -0.000172   0.195363   0.263442
   37  C  3  X    0.000328  -0.000168  -0.000036  -0.007986   0.008371
   38  C  3  Y    0.001919  -0.001143   0.000179   0.012363  -0.020770
   39  C  3  Z    0.000000   0.000000   0.000000   0.000000   0.000000
   40  C  3 XX   -0.000272  -0.009168   0.000006  -0.001967   0.003433
   41  C  3 YY   -0.000618  -0.009233   0.000087   0.005925  -0.007833
   42  C  3 ZZ   -0.000176  -0.009160  -0.000040  -0.001963   0.002665
   43  C  3 XY   -0.000098  -0.000016  -0.000008  -0.000280   0.000641
   44  C  3 XZ    0.000000   0.000000   0.000000   0.000000   0.000000
   45  C  3 YZ    0.000000   0.000000   0.000000   0.000000   0.000000
   46  H  4  S   -0.000370  -0.000130  -0.000052   0.077222  -0.022191
   47  H  4  S    0.001902  -0.000102  -0.000057   0.010221  -0.003910
   48  H  5  S   -0.000134  -0.000083  -0.000341   0.057740  -0.086291
   49  H  5  S   -0.000343   0.000229   0.002213   0.010220  -0.021475
   50  H  6  S   -0.000040  -0.000014  -0.000339   0.052065  -0.099043
   51  H  6  S    0.000233   0.000364   0.002161   0.009721  -0.030902
   52  H  7  S   -0.000159  -0.000040  -0.000028   0.065493   0.103435
   53  H  7  S    0.000421   0.002700   0.000073   0.009246   0.030061
   54  H  8  S   -0.000159  -0.000040  -0.000028   0.065493   0.103435
   55  H  8  S    0.000421   0.002700   0.000073   0.009246   0.030061
   56  H  9  S   -0.000101  -0.000037   0.000012   0.064170   0.113466
   57  H  9  S   -0.000119   0.002732   0.000217   0.014103   0.032586

                      6          7          8          9         10
                   -0.5474    -0.4574    -0.4130    -0.4091    -0.3599
                     A'         A'         A'         A''        A'  
    1  C  1  S   -0.122208   0.033667   0.000799   0.000000   0.000285
    2  C  1  S    0.251304  -0.074420  -0.003613   0.000000   0.001096
    3  C  1  X    0.167126   0.251815  -0.157598   0.000000  -0.222025
    4  C  1  Y    0.033739   0.115398   0.245151   0.000000   0.167672
    5  C  1  Z    0.000000   0.000000   0.000000   0.147940   0.000000
    6  C  1  S    0.229873  -0.048806  -0.011887   0.000000  -0.028574
    7  C  1  X    0.069136   0.064065  -0.053794   0.000000  -0.065453
    8  C  1  Y    0.004485   0.034725   0.092746   0.000000   0.037501
    9  C  1  Z    0.000000   0.000000   0.000000   0.071982   0.000000
   10  C  1 XX    0.004147   0.003715  -0.005004   0.000000   0.000938
   11  C  1 YY   -0.007283   0.006692   0.001163   0.000000  -0.004961
   12  C  1 ZZ   -0.010485   0.001583   0.000869   0.000000  -0.000120
   13  C  1 XY    0.009261  -0.000713  -0.002242   0.000000  -0.018923
   14  C  1 XZ    0.000000   0.000000   0.000000  -0.003585   0.000000
   15  C  1 YZ    0.000000   0.000000   0.000000  -0.009501   0.000000
   16  C  2  S    0.090966  -0.018037  -0.000514   0.000000  -0.027725
   17  C  2  S   -0.183071   0.037859   0.002417   0.000000   0.058684
   18  C  2  X    0.180527   0.002208   0.344195   0.000000   0.154279
   19  C  2  Y   -0.059688   0.320585   0.043092   0.000000  -0.234769
   20  C  2  Z    0.000000   0.000000   0.000000   0.065761   0.000000
   21  C  2  S   -0.173977   0.040395  -0.027282   0.000000   0.088830
   22  C  2  X    0.063109   0.005485   0.124389   0.000000   0.064513
   23  C  2  Y   -0.024471   0.124345   0.020489   0.000000  -0.087262
   24  C  2  Z    0.000000   0.000000   0.000000   0.037707   0.000000
   25  C  2 XX    0.002141  -0.003695  -0.010443   0.000000   0.002160
   26  C  2 YY   -0.006364   0.008107   0.002695   0.000000  -0.012081
   27  C  2 ZZ    0.008260  -0.001392   0.000451   0.000000  -0.001616
   28  C  2 XY   -0.012141   0.006861  -0.011338   0.000000  -0.006050
   29  C  2 XZ    0.000000   0.000000   0.000000   0.003394   0.000000
   30  C  2 YZ    0.000000   0.000000   0.000000  -0.004141   0.000000
   31  C  3  S    0.051851  -0.013069  -0.007162   0.000000   0.007353
   32  C  3  S   -0.103033   0.027257   0.010182   0.000000  -0.017847
   33  C  3  X    0.066667   0.183157  -0.225565   0.000000   0.319751
   34  C  3  Y    0.142032  -0.165836  -0.187511   0.000000  -0.168657
   35  C  3  Z    0.000000   0.000000   0.000000   0.430856   0.000000
   36  C  3  S   -0.117117   0.023058   0.035263   0.000000  -0.034427
   37  C  3  X    0.026037   0.092790  -0.100776   0.000000   0.142367
   38  C  3  Y    0.049051  -0.073613  -0.084446   0.000000  -0.084167
   39  C  3  Z    0.000000   0.000000   0.000000   0.199961   0.000000
   40  C  3 XX   -0.003480   0.011991  -0.003285   0.000000   0.015477
   41  C  3 YY    0.012942  -0.008673  -0.007284   0.000000  -0.001542
   42  C  3 ZZ   -0.007526  -0.001913   0.014185   0.000000  -0.010470
   43  C  3 XY    0.003521  -0.000602   0.002833   0.000000  -0.020586
   44  C  3 XZ    0.000000   0.000000   0.000000  -0.019636   0.000000
   45  C  3 YZ    0.000000   0.000000   0.000000  -0.008855   0.000000
   46  H  4  S    0.187433   0.121370  -0.034722   0.000000  -0.098311
   47  H  4  S    0.093698   0.107083  -0.033962   0.000000  -0.092723
   48  H  5  S   -0.150914  -0.047648  -0.205821   0.000000  -0.011896
   49  H  5  S   -0.081553  -0.031705  -0.162266   0.000000  -0.026743
   50  H  6  S   -0.100793   0.197316   0.044504   0.000000  -0.122609
   51  H  6  S   -0.050001   0.138768   0.036742   0.000000  -0.127982
   52  H  7  S   -0.081988  -0.007229   0.111437   0.220606  -0.080728
   53  H  7  S   -0.042526  -0.004325   0.082618   0.177678  -0.074889
   54  H  8  S   -0.081988  -0.007229   0.111437  -0.220606  -0.080728
   55  H  8  S   -0.042526  -0.004325   0.082618  -0.177678  -0.074889
   56  H  9  S   -0.041982   0.148030  -0.072424   0.000000   0.246052
   57  H  9  S   -0.019212   0.100276  -0.065061   0.000000   0.231889

                     11         12         13         14         15
                   -0.3409    -0.2413     0.0225     0.1153     0.1354
                     A'         A''        A''        A'         A'  
    1  C  1  S   -0.007642   0.000000   0.000000  -0.051013   0.043597
    2  C  1  S    0.023701   0.000000   0.000000   0.084193  -0.019980
    3  C  1  X   -0.193510   0.000000   0.000000   0.177497  -0.130333
    4  C  1  Y   -0.263933   0.000000   0.000000   0.065750  -0.029771
    5  C  1  Z    0.000000   0.373387  -0.421485   0.000000   0.000000
    6  C  1  S    0.006823   0.000000   0.000000   0.941503  -0.745136
    7  C  1  X   -0.071199   0.000000   0.000000   0.302747  -0.312268
    8  C  1  Y   -0.068410   0.000000   0.000000   0.299051   0.145511
    9  C  1  Z    0.000000   0.272068  -0.565406   0.000000   0.000000
   10  C  1 XX   -0.023449   0.000000   0.000000  -0.007734   0.016810
   11  C  1 YY    0.016999   0.000000   0.000000   0.007609   0.004831
   12  C  1 ZZ   -0.000060   0.000000   0.000000  -0.004689  -0.002584
   13  C  1 XY   -0.013273   0.000000   0.000000  -0.011519   0.013818
   14  C  1 XZ    0.000000  -0.011773  -0.021799   0.000000   0.000000
   15  C  1 YZ    0.000000   0.014063   0.012382   0.000000   0.000000
   16  C  2  S   -0.005023   0.000000   0.000000  -0.051800   0.000756
   17  C  2  S    0.010732   0.000000   0.000000   0.101317   0.021607
   18  C  2  X    0.162317   0.000000   0.000000  -0.043908  -0.080006
   19  C  2  Y    0.199204   0.000000   0.000000   0.113568  -0.111500
   20  C  2  Z    0.000000   0.403730   0.389375   0.000000   0.000000
   21  C  2  S    0.014054   0.000000   0.000000   0.591499  -0.100615
   22  C  2  X    0.042448   0.000000   0.000000  -0.322639  -0.240469
   23  C  2  Y    0.069002   0.000000   0.000000   0.390774  -0.237211
   24  C  2  Z    0.000000   0.300123   0.591176   0.000000   0.000000
   25  C  2 XX   -0.022527   0.000000   0.000000   0.011447  -0.001238
   26  C  2 YY    0.021865   0.000000   0.000000  -0.017711   0.010879
   27  C  2 ZZ   -0.000375   0.000000   0.000000  -0.001284  -0.002503
   28  C  2 XY   -0.008491   0.000000   0.000000  -0.000970   0.002179
   29  C  2 XZ    0.000000   0.012020  -0.019874   0.000000   0.000000
   30  C  2 YZ    0.000000  -0.008389   0.012760   0.000000   0.000000
   31  C  3  S   -0.023082   0.000000   0.000000  -0.082308  -0.113380
   32  C  3  S    0.049324   0.000000   0.000000   0.100049   0.121015
   33  C  3  X    0.111934   0.000000   0.000000   0.105705  -0.176285
   34  C  3  Y    0.279663   0.000000   0.000000  -0.126061  -0.117121
   35  C  3  Z    0.000000  -0.126919  -0.034127   0.000000   0.000000
   36  C  3  S    0.116137   0.000000   0.000000   1.363315   1.973999
   37  C  3  X    0.066296   0.000000   0.000000   0.332337  -0.487498
   38  C  3  Y    0.147485   0.000000   0.000000  -0.406612  -0.235944
   39  C  3  Z    0.000000  -0.075798  -0.189052   0.000000   0.000000
   40  C  3 XX   -0.005471   0.000000   0.000000  -0.016800  -0.004109
   41  C  3 YY    0.009400   0.000000   0.000000  -0.002328  -0.005184
   42  C  3 ZZ   -0.010716   0.000000   0.000000  -0.000984  -0.018442
   43  C  3 XY   -0.006179   0.000000   0.000000   0.013740  -0.009840
   44  C  3 XZ    0.000000   0.008324  -0.013123   0.000000   0.000000
   45  C  3 YZ    0.000000   0.019320  -0.025541   0.000000   0.000000
   46  H  4  S   -0.203595   0.000000   0.000000  -0.034869   0.089294
   47  H  4  S   -0.212933   0.000000   0.000000  -0.990569   0.839266
   48  H  5  S   -0.169903   0.000000   0.000000   0.025634   0.004998
   49  H  5  S   -0.192585   0.000000   0.000000  -0.337662  -0.440305
   50  H  6  S    0.168658   0.000000   0.000000  -0.069876   0.014220
   51  H  6  S    0.170673   0.000000   0.000000  -0.853874   0.393969
   52  H  7  S   -0.081681  -0.097781   0.084898   0.016266  -0.048859
   53  H  7  S   -0.091154  -0.104802   0.359727  -0.396405  -1.216535
   54  H  8  S   -0.081681   0.097781  -0.084898   0.016266  -0.048859
   55  H  8  S   -0.091154   0.104802  -0.359727  -0.396405  -1.216535
   56  H  9  S    0.013969   0.000000   0.000000  -0.076468   0.036824
   57  H  9  S   -0.004457   0.000000   0.000000  -1.201511  -0.169092

                     16         17         18         19         20
                    0.1564     0.1916     0.1959     0.2080     0.2927
                     A'         A'         A''        A'         A'  
    1  C  1  S    0.017349  -0.038494   0.000000  -0.113941  -0.070145
    2  C  1  S   -0.047658   0.039460   0.000000   0.175873   0.063493
    3  C  1  X   -0.034637  -0.028364   0.000000   0.143923  -0.238084
    4  C  1  Y   -0.116931  -0.104554   0.000000  -0.036938  -0.304769
    5  C  1  Z    0.000000   0.000000   0.138677   0.000000   0.000000
    6  C  1  S   -0.093243   0.716622   0.000000   2.067854   1.983260
    7  C  1  X   -0.042190  -0.134946   0.000000   0.674850  -1.508172
    8  C  1  Y   -0.523984   0.040350   0.000000  -0.133697  -1.694228
    9  C  1  Z    0.000000   0.000000   0.467175   0.000000   0.000000
   10  C  1 XX    0.012113   0.015017   0.000000   0.011495  -0.005417
   11  C  1 YY   -0.015082  -0.024268   0.000000  -0.013057   0.009807
   12  C  1 ZZ    0.003227   0.001034   0.000000  -0.007846  -0.004869
   13  C  1 XY   -0.002532  -0.006030   0.000000   0.015592  -0.011766
   14  C  1 XZ    0.000000   0.000000   0.001619   0.000000   0.000000
   15  C  1 YZ    0.000000   0.000000   0.012488   0.000000   0.000000
   16  C  2  S   -0.115896   0.033014   0.000000   0.040925   0.031751
   17  C  2  S    0.161787  -0.037716   0.000000  -0.059093   0.002392
   18  C  2  X   -0.227774  -0.142415   0.000000  -0.083356   0.126479
   19  C  2  Y    0.022615  -0.316347   0.000000  -0.031929   0.127324
   20  C  2  Z    0.000000   0.000000  -0.135969   0.000000   0.000000
   21  C  2  S    1.893794  -0.764544   0.000000  -0.373068  -0.980961
   22  C  2  X   -0.548313  -0.660440   0.000000  -0.449487   0.301279
   23  C  2  Y    0.054685  -0.881809   0.000000  -0.194132   1.579031
   24  C  2  Z    0.000000   0.000000  -0.221814   0.000000   0.000000
   25  C  2 XX   -0.016099  -0.007967   0.000000   0.001522  -0.016696
   26  C  2 YY    0.001412   0.003586   0.000000   0.007584   0.010540
   27  C  2 ZZ   -0.007109   0.005327   0.000000   0.001798   0.007464
   28  C  2 XY   -0.006997  -0.003738   0.000000  -0.011346  -0.018287
   29  C  2 XZ    0.000000   0.000000   0.010616   0.000000   0.000000
   30  C  2 YZ    0.000000   0.000000  -0.008985   0.000000   0.000000
   31  C  3  S    0.056150   0.023862   0.000000   0.056979   0.054528
   32  C  3  S   -0.054457  -0.055857   0.000000  -0.063921   0.024994
   33  C  3  X   -0.085591   0.221266   0.000000  -0.266358   0.015790
   34  C  3  Y    0.005003  -0.170911   0.000000  -0.100494  -0.124233
   35  C  3  Z    0.000000   0.000000  -0.433765   0.000000   0.000000
   36  C  3  S   -1.063695  -0.080469   0.000000  -0.882254  -1.664364
   37  C  3  X   -0.084922   0.811320   0.000000  -1.052364   0.290481
   38  C  3  Y   -0.132262  -0.500874   0.000000  -0.606979  -1.823369
   39  C  3  Z    0.000000   0.000000  -1.415642   0.000000   0.000000
   40  C  3 XX   -0.000364  -0.011814   0.000000   0.000331  -0.017023
   41  C  3 YY    0.004803   0.015278   0.000000   0.022551   0.036148
   42  C  3 ZZ    0.007170   0.000632   0.000000  -0.011062  -0.007508
   43  C  3 XY    0.004364   0.000180   0.000000   0.000962   0.002316
   44  C  3 XZ    0.000000   0.000000  -0.011462   0.000000   0.000000
   45  C  3 YZ    0.000000   0.000000   0.005937   0.000000   0.000000
   46  H  4  S    0.042499   0.010730   0.000000  -0.001409  -0.019656
   47  H  4  S    0.496479  -0.050903   0.000000  -1.467294   1.424185
   48  H  5  S   -0.102336  -0.021074   0.000000  -0.015871  -0.048127
   49  H  5  S   -1.650862  -0.857280   0.000000  -0.293979   1.202577
   50  H  6  S   -0.018538   0.047204   0.000000   0.040221   0.019811
   51  H  6  S   -0.783643   1.603955   0.000000   0.544923  -1.047449
   52  H  7  S    0.027456   0.013300   0.058782  -0.046985  -0.058007
   53  H  7  S    0.264073   0.398069   1.527245  -0.499677  -0.027349
   54  H  8  S    0.027456   0.013300  -0.058782  -0.046985  -0.058007
   55  H  8  S    0.264073   0.398069  -1.527245  -0.499677  -0.027349
   56  H  9  S   -0.024557  -0.063045   0.000000   0.040569  -0.085780
   57  H  9  S    0.459660  -1.148625   0.000000   1.290814  -0.443285

                     21         22         23         24         25
                    0.3457     0.5051     0.5348     0.5560     0.5912
                     A'         A'         A'         A''        A'  
    1  C  1  S    0.052499  -0.020005  -0.032344   0.000000  -0.073247
    2  C  1  S    0.014649  -0.053199   0.016116   0.000000  -0.274514
    3  C  1  X    0.199579   0.196493  -0.035941   0.000000   0.034423
    4  C  1  Y   -0.242650  -0.360933   0.148008   0.000000  -0.282801
    5  C  1  Z    0.000000   0.000000   0.000000  -0.642648   0.000000
    6  C  1  S   -2.614676   0.136093  -0.059702   0.000000   0.358927
    7  C  1  X    2.246356  -0.699855  -0.024356   0.000000  -0.575869
    8  C  1  Y   -2.054692   1.097038   0.016449   0.000000   0.570202
    9  C  1  Z    0.000000   0.000000   0.000000   0.349144   0.000000
   10  C  1 XX    0.013150  -0.038780   0.035150   0.000000  -0.087324
   11  C  1 YY   -0.010609   0.025183  -0.103389   0.000000  -0.128885
   12  C  1 ZZ    0.007308   0.007888   0.023273   0.000000   0.073662
   13  C  1 XY   -0.011195   0.067457   0.031237   0.000000  -0.000398
   14  C  1 XZ    0.000000   0.000000   0.000000   0.043049   0.000000
   15  C  1 YZ    0.000000   0.000000   0.000000  -0.030531   0.000000
   16  C  2  S   -0.074752  -0.003917   0.017683   0.000000   0.009115
   17  C  2  S    0.022525  -0.204444  -0.165946   0.000000  -0.335788
   18  C  2  X    0.131448  -0.447772   0.088947   0.000000  -0.317532
   19  C  2  Y   -0.013668   0.303699   0.305125   0.000000   0.114650
   20  C  2  Z    0.000000   0.000000   0.000000  -0.635733   0.000000
   21  C  2  S    3.091214  -0.486411   0.207069   0.000000  -0.299073
   22  C  2  X    2.417230   0.264196  -0.593827   0.000000   0.403994
   23  C  2  Y   -1.534951  -0.363900  -0.234425   0.000000   0.233410
   24  C  2  Z    0.000000   0.000000   0.000000   0.622344   0.000000
   25  C  2 XX   -0.019050  -0.026722  -0.068221   0.000000  -0.019309
   26  C  2 YY    0.029315  -0.005614   0.065866   0.000000  -0.040952
   27  C  2 ZZ   -0.011540  -0.004346  -0.007535   0.000000   0.010940
   28  C  2 XY    0.024499   0.037649  -0.054098   0.000000   0.007900
   29  C  2 XZ    0.000000   0.000000   0.000000  -0.044388   0.000000
   30  C  2 YZ    0.000000   0.000000   0.000000   0.023592   0.000000
   31  C  3  S    0.011565   0.008922   0.007945   0.000000   0.021135
   32  C  3  S   -0.032025  -0.024660  -0.162981   0.000000  -0.219556
   33  C  3  X    0.081972   0.286364   0.272357   0.000000  -0.443585
   34  C  3  Y   -0.160620   0.218914  -0.610851   0.000000  -0.636402
   35  C  3  Z    0.000000   0.000000   0.000000  -0.317615   0.000000
   36  C  3  S   -0.421036   0.522977   0.166294   0.000000   0.286158
   37  C  3  X   -0.765308  -0.238243  -0.466119   0.000000   0.997592
   38  C  3  Y   -0.689189  -0.204487   0.870759   0.000000   0.740408
   39  C  3  Z    0.000000   0.000000   0.000000   0.772232   0.000000
   40  C  3 XX    0.011554   0.004950   0.043160   0.000000  -0.057213
   41  C  3 YY    0.011097   0.065292  -0.026903   0.000000   0.018601
   42  C  3 ZZ   -0.021692  -0.053053  -0.034726   0.000000   0.034238
   43  C  3 XY    0.021197  -0.054443  -0.057151   0.000000   0.009958
   44  C  3 XZ    0.000000   0.000000   0.000000   0.054763   0.000000
   45  C  3 YZ    0.000000   0.000000   0.000000   0.014507   0.000000
   46  H  4  S   -0.016818   0.059162   0.199607   0.000000  -0.385087
   47  H  4  S   -0.438185   0.033312  -0.102133   0.000000   0.169244
   48  H  5  S    0.039465   0.052396  -0.355776   0.000000   0.074823
   49  H  5  S    0.637527  -0.112907  -0.169354   0.000000   0.273034
   50  H  6  S    0.143110   0.001354   0.230871   0.000000  -0.108779
   51  H  6  S    0.234735   0.042108  -0.191658   0.000000  -0.176934
   52  H  7  S   -0.049675  -0.197921  -0.067649  -0.246896   0.109130
   53  H  7  S   -0.354590   0.070658   0.035852  -0.218607   0.175024
   54  H  8  S   -0.049675  -0.197921  -0.067649   0.246896   0.109130
   55  H  8  S   -0.354590   0.070658   0.035852   0.218607   0.175024
   56  H  9  S   -0.030963   0.227263   0.327698   0.000000  -0.138432
   57  H  9  S    0.006661  -0.128491  -0.020842   0.000000  -0.187749

                     26         27         28         29         30
                    0.6190     0.6811     0.6820     0.7612     0.7823
                     A''        A''        A'         A'         A'  
    1  C  1  S    0.000000   0.000000   0.040529  -0.026545   0.032300
    2  C  1  S    0.000000   0.000000  -0.501149   0.238748   0.657909
    3  C  1  X    0.000000   0.000000   0.320642  -0.615751   0.166947
    4  C  1  Y    0.000000   0.000000  -0.237072  -0.128256  -0.784352
    5  C  1  Z   -0.138733  -0.859276   0.000000   0.000000   0.000000
    6  C  1  S    0.000000   0.000000   0.617458  -0.566892  -1.386903
    7  C  1  X    0.000000   0.000000   0.181191   2.444962  -0.617148
    8  C  1  Y    0.000000   0.000000   0.069258   0.291867   1.801585
    9  C  1  Z   -0.055342   1.621489   0.000000   0.000000   0.000000
   10  C  1 XX    0.000000   0.000000   0.001416  -0.065813   0.169327
   11  C  1 YY    0.000000   0.000000  -0.004518  -0.004029   0.009900
   12  C  1 ZZ    0.000000   0.000000  -0.024574   0.045656  -0.034043
   13  C  1 XY    0.000000   0.000000  -0.077348  -0.046982  -0.041544
   14  C  1 XZ   -0.024979   0.009323   0.000000   0.000000   0.000000
   15  C  1 YZ    0.009405   0.045676   0.000000   0.000000   0.000000
   16  C  2  S    0.000000   0.000000  -0.087959   0.022692  -0.015749
   17  C  2  S    0.000000   0.000000  -0.468103  -0.021660   0.399337
   18  C  2  X    0.000000   0.000000   0.342915  -0.176837   0.211029
   19  C  2  Y    0.000000   0.000000  -0.269106  -0.071401  -0.353120
   20  C  2  Z    0.741058   0.432154   0.000000   0.000000   0.000000
   21  C  2  S    0.000000   0.000000   1.522326   1.315539  -1.060527
   22  C  2  X    0.000000   0.000000  -0.576045   0.250583  -0.420920
   23  C  2  Y    0.000000   0.000000   0.353887  -0.072429   0.646521
   24  C  2  Z   -0.780330  -0.909977   0.000000   0.000000   0.000000
   25  C  2 XX    0.000000   0.000000  -0.138852   0.090502  -0.051150
   26  C  2 YY    0.000000   0.000000  -0.150458  -0.012068   0.061028
   27  C  2 ZZ    0.000000   0.000000   0.096011  -0.035785   0.014286
   28  C  2 XY    0.000000   0.000000   0.008086  -0.067712   0.053418
   29  C  2 XZ   -0.006346   0.002379   0.000000   0.000000   0.000000
   30  C  2 YZ   -0.016723   0.024958   0.000000   0.000000   0.000000
   31  C  3  S    0.000000   0.000000  -0.008962   0.017123   0.054355
   32  C  3  S    0.000000   0.000000   0.050288  -0.097915  -0.059416
   33  C  3  X    0.000000   0.000000   0.115080   0.640550   0.036178
   34  C  3  Y    0.000000   0.000000   0.048615  -0.185894  -0.280578
   35  C  3  Z   -0.599346   0.362429   0.000000   0.000000   0.000000
   36  C  3  S    0.000000   0.000000  -0.034295   0.290463   0.631833
   37  C  3  X    0.000000   0.000000  -0.484058  -2.113397   0.136514
   38  C  3  Y    0.000000   0.000000  -0.179635   0.616548   1.439539
   39  C  3  Z    1.323346  -1.300708   0.000000   0.000000   0.000000
   40  C  3 XX    0.000000   0.000000   0.031417   0.053095  -0.029809
   41  C  3 YY    0.000000   0.000000   0.001355   0.019553   0.083130
   42  C  3 ZZ    0.000000   0.000000  -0.023565  -0.064961   0.002872
   43  C  3 XY    0.000000   0.000000   0.029783   0.074628   0.029070
   44  C  3 XZ    0.088272  -0.056687   0.000000   0.000000   0.000000
   45  C  3 YZ    0.008345  -0.033481   0.000000   0.000000   0.000000
   46  H  4  S    0.000000   0.000000  -0.093546  -0.435959   0.343898
   47  H  4  S    0.000000   0.000000  -0.166961  -0.935379  -0.051880
   48  H  5  S    0.000000   0.000000  -0.538475   0.149174   0.013715
   49  H  5  S    0.000000   0.000000  -0.268155  -0.253962   0.170415
   50  H  6  S    0.000000   0.000000  -0.588445  -0.243391   0.068915
   51  H  6  S    0.000000   0.000000  -0.121295  -0.015593  -0.393215
   52  H  7  S   -0.278491   0.205547  -0.079782   0.044477   0.316910
   53  H  7  S   -0.270239   0.300197  -0.158405  -0.432721   0.205505
   54  H  8  S    0.278491  -0.205547  -0.079782   0.044477   0.316910
   55  H  8  S    0.270239  -0.300197  -0.158405  -0.432721   0.205505
   56  H  9  S    0.000000   0.000000  -0.004245   0.087357   0.176400
   57  H  9  S    0.000000   0.000000   0.227224   1.111284   0.423877

                     31         32         33         34         35
                    0.8694     0.8815     0.8949     0.9298     0.9488
                     A'         A''        A'         A'         A'  
    1  C  1  S   -0.012139   0.000000   0.027201   0.006307  -0.017383
    2  C  1  S   -0.149036   0.000000  -0.566457  -0.572784  -0.419682
    3  C  1  X    0.139951   0.000000  -0.765513  -0.363555   0.103932
    4  C  1  Y    0.318719   0.000000  -0.266024  -0.198395  -0.026293
    5  C  1  Z    0.000000  -0.004039   0.000000   0.000000   0.000000
    6  C  1  S    0.470585   0.000000   0.634492   1.157526   1.040655
    7  C  1  X   -0.787871   0.000000   2.114715   0.598265  -0.094812
    8  C  1  Y   -1.523467   0.000000   0.426189   1.287674  -0.113554
    9  C  1  Z    0.000000   0.108881   0.000000   0.000000   0.000000
   10  C  1 XX    0.039744   0.000000   0.054402  -0.006840  -0.032486
   11  C  1 YY   -0.063590   0.000000  -0.081594  -0.036175  -0.044559
   12  C  1 ZZ    0.004649   0.000000  -0.071043  -0.035691   0.020525
   13  C  1 XY    0.031758   0.000000   0.112688   0.048798  -0.029673
   14  C  1 XZ    0.000000  -0.027674   0.000000   0.000000   0.000000
   15  C  1 YZ    0.000000  -0.097401   0.000000   0.000000   0.000000
   16  C  2  S    0.003414   0.000000  -0.013644   0.009970   0.024179
   17  C  2  S   -0.113569   0.000000  -0.079212  -0.381328  -0.941512
   18  C  2  X   -0.713647   0.000000  -0.140070   0.151704   0.432241
   19  C  2  Y   -0.780103   0.000000  -0.147340   0.283798  -0.370939
   20  C  2  Z    0.000000   0.088085   0.000000   0.000000   0.000000
   21  C  2  S    0.151368   0.000000   1.001626   0.101816   1.822002
   22  C  2  X    1.762273   0.000000   0.493573  -0.906521  -0.704471
   23  C  2  Y    2.135711   0.000000  -0.278897  -0.888405   0.728718
   24  C  2  Z    0.000000  -0.117985   0.000000   0.000000   0.000000
   25  C  2 XX   -0.098758   0.000000  -0.040222  -0.079099  -0.040874
   26  C  2 YY    0.084871   0.000000   0.031984   0.049019   0.006859
   27  C  2 ZZ    0.003836   0.000000   0.004548  -0.014799  -0.103841
   28  C  2 XY   -0.040208   0.000000  -0.052661   0.016078   0.111105
   29  C  2 XZ    0.000000  -0.013533   0.000000   0.000000   0.000000
   30  C  2 YZ    0.000000  -0.008594   0.000000   0.000000   0.000000
   31  C  3  S   -0.009870   0.000000  -0.009123  -0.015544   0.020185
   32  C  3  S    0.096900   0.000000  -0.028305  -0.157933  -0.548874
   33  C  3  X    0.247650   0.000000  -0.458567   0.476755  -0.010354
   34  C  3  Y    0.063836   0.000000   0.073558   0.065530   0.217816
   35  C  3  Z    0.000000   0.848178   0.000000   0.000000   0.000000
   36  C  3  S   -0.990844   0.000000   0.333105   1.022177   0.878309
   37  C  3  X   -0.436844   0.000000   0.307732  -0.418083  -0.228099
   38  C  3  Y   -0.493443   0.000000   0.070306   0.107136  -0.460808
   39  C  3  Z    0.000000  -1.342949   0.000000   0.000000   0.000000
   40  C  3 XX   -0.008835   0.000000   0.061915  -0.169930   0.046598
   41  C  3 YY   -0.063818   0.000000   0.007100  -0.005818  -0.079444
   42  C  3 ZZ    0.060573   0.000000  -0.075160   0.150149  -0.043986
   43  C  3 XY    0.029627   0.000000  -0.080348   0.041093  -0.016741
   44  C  3 XZ    0.000000   0.156695   0.000000   0.000000   0.000000
   45  C  3 YZ    0.000000   0.134299   0.000000   0.000000   0.000000
   46  H  4  S    0.032460   0.000000   0.561994   0.445699  -0.175971
   47  H  4  S    0.486077   0.000000  -2.085001  -1.268846   0.097878
   48  H  5  S   -0.447641   0.000000  -0.139430   0.020146   0.550896
   49  H  5  S    1.850582   0.000000   0.352544  -0.711189  -1.136807
   50  H  6  S    0.409443   0.000000  -0.007264   0.175557   0.529320
   51  H  6  S   -1.788701   0.000000  -0.091615   0.297141  -1.285472
   52  H  7  S    0.107732  -0.700930  -0.225504   0.298981   0.144888
   53  H  7  S   -0.261186   1.441362   0.363343  -0.623054  -0.403080
   54  H  8  S    0.107732   0.700930  -0.225504   0.298981   0.144888
   55  H  8  S   -0.261186  -1.441362   0.363343  -0.623054  -0.403080
   56  H  9  S   -0.143557   0.000000   0.375986  -0.774005   0.446232
   57  H  9  S    0.416836   0.000000  -0.729205   0.918140  -0.561874

                     36         37         38         39         40
                    0.9685     1.1160     1.2477     1.2986     1.4310
                     A'         A'         A'         A'         A'' 
    1  C  1  S   -0.016442   0.029227   0.015782   0.056561   0.000000
    2  C  1  S    0.043747   1.217731   0.589131   0.866993   0.000000
    3  C  1  X   -0.048749  -0.206544  -0.200561   0.013033   0.000000
    4  C  1  Y    0.101741   0.238145  -0.245640  -0.023292   0.000000
    5  C  1  Z    0.000000   0.000000   0.000000   0.000000  -0.006175
    6  C  1  S   -0.333641  -4.661669  -1.908468  -4.160730   0.000000
    7  C  1  X    0.163369   1.180488   2.135715   0.430581   0.000000
    8  C  1  Y   -0.474163  -2.246717   2.811139   1.988313   0.000000
    9  C  1  Z    0.000000   0.000000   0.000000   0.000000  -0.072082
   10  C  1 XX   -0.004217   0.040915  -0.066849   0.125271   0.000000
   11  C  1 YY   -0.049986   0.090255   0.098669   0.039220   0.000000
   12  C  1 ZZ    0.034438   0.010015   0.008951  -0.108788   0.000000
   13  C  1 XY    0.010028   0.129652  -0.047479   0.024976   0.000000
   14  C  1 XZ    0.000000   0.000000   0.000000   0.000000  -0.055830
   15  C  1 YZ    0.000000   0.000000   0.000000   0.000000   0.556280
   16  C  2  S   -0.014928  -0.035943  -0.007937  -0.009124   0.000000
   17  C  2  S    0.305956  -1.498031  -0.334112  -0.256302   0.000000
   18  C  2  X   -0.213019  -0.188243   0.048504   0.003027   0.000000
   19  C  2  Y    0.306144   0.132576   0.162066  -0.142843   0.000000
   20  C  2  Z    0.000000   0.000000   0.000000   0.000000  -0.123512
   21  C  2  S   -0.491659   5.508897   1.187296   1.220804   0.000000
   22  C  2  X    0.567621   2.057545  -1.543468  -0.209140   0.000000
   23  C  2  Y   -0.617700  -0.637395  -2.718937  -0.183598   0.000000
   24  C  2  Z    0.000000   0.000000   0.000000   0.000000   0.059570
   25  C  2 XX   -0.004600  -0.016910  -0.150907   0.037022   0.000000
   26  C  2 YY   -0.007983  -0.167464   0.122534   0.054814   0.000000
   27  C  2 ZZ    0.069503  -0.006914  -0.015185  -0.117158   0.000000
   28  C  2 XY   -0.073587  -0.087877  -0.085668  -0.021168   0.000000
   29  C  2 XZ    0.000000   0.000000   0.000000   0.000000   0.390345
   30  C  2 YZ    0.000000   0.000000   0.000000   0.000000  -0.062152
   31  C  3  S    0.040505   0.038390  -0.001524  -0.138541   0.000000
   32  C  3  S   -1.135912   0.450038   0.257645  -1.923780   0.000000
   33  C  3  X   -0.046485  -0.073079  -0.272807  -0.063366   0.000000
   34  C  3  Y    0.440861   0.031212   0.289692  -0.098861   0.000000
   35  C  3  Z    0.000000   0.000000   0.000000   0.000000   0.115616
   36  C  3  S    2.250924  -1.512438   1.689548   6.684853   0.000000
   37  C  3  X    0.200605   0.204660   0.465347   0.272013   0.000000
   38  C  3  Y   -0.872254  -0.165162   0.797965   1.404433   0.000000
   39  C  3  Z    0.000000   0.000000   0.000000   0.000000   0.158562
   40  C  3 XX   -0.020688   0.008123   0.045645  -0.098717   0.000000
   41  C  3 YY   -0.136430   0.071107   0.102873   0.000908   0.000000
   42  C  3 ZZ    0.015489   0.015823  -0.096153  -0.150444   0.000000
   43  C  3 XY   -0.012979  -0.034605   0.131219   0.025749   0.000000
   44  C  3 XZ    0.000000   0.000000   0.000000   0.000000   0.272618
   45  C  3 YZ    0.000000   0.000000   0.000000   0.000000  -0.501826
   46  H  4  S   -0.024686   0.318390  -0.602922   0.037063   0.000000
   47  H  4  S    0.107197   0.470270  -0.904861  -0.000459   0.000000
   48  H  5  S   -0.322241   0.081030  -0.694957  -0.107300   0.000000
   49  H  5  S    0.676360  -0.124746  -1.026315  -0.385325   0.000000
   50  H  6  S   -0.304011  -0.287559   0.663193   0.002532   0.000000
   51  H  6  S    0.747277  -0.468236   0.791669  -0.332873   0.000000
   52  H  7  S    0.524919   0.177506   0.004206  -0.501549  -0.159519
   53  H  7  S   -0.978907   0.264518   0.231068  -0.565936   0.026360
   54  H  8  S    0.524919   0.177506   0.004206  -0.501549   0.159519
   55  H  8  S   -0.978907   0.264518   0.231068  -0.565936  -0.026360
   56  H  9  S    0.428723   0.066797   0.019808  -0.514132   0.000000
   57  H  9  S   -1.114091  -0.058038  -0.298977  -0.782913   0.000000

                     41         42         43         44         45
                    1.4854     1.7120     1.8120     1.9032     1.9578
                     A''        A''        A'         A'         A'  
    1  C  1  S    0.000000   0.000000   0.008040  -0.015974  -0.043694
    2  C  1  S    0.000000   0.000000   0.032896  -0.601481  -0.437075
    3  C  1  X    0.000000   0.000000  -0.055246  -0.018076   0.163973
    4  C  1  Y    0.000000   0.000000   0.040671   0.207802   0.115915
    5  C  1  Z    0.146324  -0.038283   0.000000   0.000000   0.000000
    6  C  1  S    0.000000   0.000000  -0.470563   1.545872   1.672899
    7  C  1  X    0.000000   0.000000   1.830984  -1.154438  -0.501357
    8  C  1  Y    0.000000   0.000000  -0.196253  -0.915399  -0.623742
    9  C  1  Z    0.020792  -0.153513   0.000000   0.000000   0.000000
   10  C  1 XX    0.000000   0.000000  -0.078908  -0.363184   0.524645
   11  C  1 YY    0.000000   0.000000   0.237769   0.563119   0.010001
   12  C  1 ZZ    0.000000   0.000000  -0.169612  -0.236453  -0.580533
   13  C  1 XY    0.000000   0.000000   0.363995  -0.106785   0.193387
   14  C  1 XZ    0.661464  -0.135954   0.000000   0.000000   0.000000
   15  C  1 YZ    0.086763  -0.011623   0.000000   0.000000   0.000000
   16  C  2  S    0.000000   0.000000  -0.015680   0.000407  -0.024521
   17  C  2  S    0.000000   0.000000   0.112086   0.015443  -0.181718
   18  C  2  X    0.000000   0.000000   0.156747  -0.205220  -0.074397
   19  C  2  Y    0.000000   0.000000  -0.208988  -0.065184   0.221565
   20  C  2  Z    0.120855  -0.019070   0.000000   0.000000   0.000000
   21  C  2  S    0.000000   0.000000   1.363925  -0.811646  -0.026773
   22  C  2  X    0.000000   0.000000  -0.053732   0.004554   0.102762
   23  C  2  Y    0.000000   0.000000  -0.597591   0.532126   0.476273
   24  C  2  Z   -0.034926   0.057421   0.000000   0.000000   0.000000
   25  C  2 XX    0.000000   0.000000   0.139088   0.358530  -0.064379
   26  C  2 YY    0.000000   0.000000  -0.014971  -0.216075   0.573719
   27  C  2 ZZ    0.000000   0.000000  -0.065584  -0.164061  -0.595562
   28  C  2 XY    0.000000   0.000000   0.171355   0.208365   0.086892
   29  C  2 XZ   -0.204005   0.648884   0.000000   0.000000   0.000000
   30  C  2 YZ    0.519454   0.645349   0.000000   0.000000   0.000000
   31  C  3  S    0.000000   0.000000   0.016199   0.042222   0.027161
   32  C  3  S    0.000000   0.000000  -0.035519  -0.149338   0.408289
   33  C  3  X    0.000000   0.000000   0.081082  -0.053558   0.018562
   34  C  3  Y    0.000000   0.000000  -0.083145  -0.270928   0.001825
   35  C  3  Z    0.042709  -0.066235   0.000000   0.000000   0.000000
   36  C  3  S    0.000000   0.000000  -0.045238  -1.102324  -1.612556
   37  C  3  X    0.000000   0.000000  -0.623591   0.292864   0.313030
   38  C  3  Y    0.000000   0.000000   0.137580  -0.242402  -0.543293
   39  C  3  Z   -0.169634   0.237163   0.000000   0.000000   0.000000
   40  C  3 XX    0.000000   0.000000  -0.508389  -0.060144   0.235031
   41  C  3 YY    0.000000   0.000000   0.282811   0.390690   0.023371
   42  C  3 ZZ    0.000000   0.000000   0.202348  -0.344154  -0.299722
   43  C  3 XY    0.000000   0.000000  -0.680190   0.384001   0.038503
   44  C  3 XZ    0.204125  -0.178532   0.000000   0.000000   0.000000
   45  C  3 YZ   -0.174499   0.344964   0.000000   0.000000   0.000000
   46  H  4  S    0.000000   0.000000  -0.458858   0.416207  -0.444879
   47  H  4  S    0.000000   0.000000  -0.631966   0.319255   0.183639
   48  H  5  S    0.000000   0.000000  -0.318342  -0.312990   0.006461
   49  H  5  S    0.000000   0.000000  -0.171324   0.314143   0.093485
   50  H  6  S    0.000000   0.000000   0.057143   0.147954  -0.559432
   51  H  6  S    0.000000   0.000000   0.100816  -0.165208  -0.081544
   52  H  7  S    0.012077  -0.011505   0.095768   0.214009   0.220875
   53  H  7  S    0.134505  -0.091638  -0.112431   0.004806   0.139035
   54  H  8  S   -0.012077   0.011505   0.095768   0.214009   0.220875
   55  H  8  S   -0.134505   0.091638  -0.112431   0.004806   0.139035
   56  H  9  S    0.000000   0.000000   0.087562   0.228526  -0.079137
   57  H  9  S    0.000000   0.000000   0.170964  -0.103573  -0.014598

                     46         47         48         49         50
                    2.1325     2.1403     2.1964     2.2166     2.2832
                     A''        A'         A'         A''        A'  
    1  C  1  S    0.000000  -0.021959   0.015808   0.000000  -0.024266
    2  C  1  S    0.000000  -0.286478   0.490964   0.000000   0.074227
    3  C  1  X    0.000000   0.207455  -0.202829   0.000000  -0.007849
    4  C  1  Y    0.000000  -0.240929  -0.087182   0.000000  -0.354395
    5  C  1  Z    0.023974   0.000000   0.000000  -0.112841   0.000000
    6  C  1  S    0.000000   0.011277  -0.972666   0.000000   0.407938
    7  C  1  X    0.000000   0.246063   0.569643   0.000000  -0.248707
    8  C  1  Y    0.000000  -0.176209  -0.429844   0.000000  -0.033013
    9  C  1  Z   -0.410447   0.000000   0.000000  -0.200744   0.000000
   10  C  1 XX    0.000000   0.100794  -0.242241   0.000000  -0.026216
   11  C  1 YY    0.000000  -0.053852  -0.026131   0.000000   0.021638
   12  C  1 ZZ    0.000000  -0.273228   0.346480   0.000000  -0.019387
   13  C  1 XY    0.000000  -0.499545  -0.009580   0.000000  -0.110968
   14  C  1 XZ    0.357131   0.000000   0.000000   0.503695   0.000000
   15  C  1 YZ    0.649727   0.000000   0.000000   0.032358   0.000000
   16  C  2  S    0.000000  -0.036777  -0.027562   0.000000  -0.016435
   17  C  2  S    0.000000  -0.384784  -0.203032   0.000000  -0.083870
   18  C  2  X    0.000000  -0.163154  -0.019112   0.000000  -0.095163
   19  C  2  Y    0.000000   0.086863  -0.008756   0.000000   0.003269
   20  C  2  Z   -0.006117   0.000000   0.000000   0.027143   0.000000
   21  C  2  S    0.000000   1.004621   1.404819   0.000000  -0.001631
   22  C  2  X    0.000000   0.472512   0.044359   0.000000  -0.153529
   23  C  2  Y    0.000000  -0.465333  -0.131660   0.000000  -0.362285
   24  C  2  Z    0.110005   0.000000   0.000000   0.214220   0.000000
   25  C  2 XX    0.000000   0.392744   0.237245   0.000000   0.600906
   26  C  2 YY    0.000000  -0.132140   0.356056   0.000000  -0.433177
   27  C  2 ZZ    0.000000  -0.452507  -0.539420   0.000000  -0.229592
   28  C  2 XY    0.000000  -0.510911   0.610083   0.000000   0.184405
   29  C  2 XZ   -0.078082   0.000000   0.000000   0.399377   0.000000
   30  C  2 YZ   -0.206940   0.000000   0.000000  -0.456929   0.000000
   31  C  3  S    0.000000   0.010374   0.000566   0.000000   0.018905
   32  C  3  S    0.000000   0.201684   0.157458   0.000000   0.148563
   33  C  3  X    0.000000  -0.089247  -0.091386   0.000000   0.054493
   34  C  3  Y    0.000000   0.055013   0.037725   0.000000  -0.038121
   35  C  3  Z    0.061786   0.000000   0.000000  -0.105282   0.000000
   36  C  3  S    0.000000  -0.505343  -0.224308   0.000000  -0.469962
   37  C  3  X    0.000000  -0.278020  -0.272067   0.000000   0.515677
   38  C  3  Y    0.000000  -0.223375  -0.217246   0.000000  -0.482267
   39  C  3  Z    0.736200   0.000000   0.000000  -0.170056   0.000000
   40  C  3 XX    0.000000  -0.432189  -0.176304   0.000000   0.769470
   41  C  3 YY    0.000000  -0.042715  -0.395027   0.000000  -0.459269
   42  C  3 ZZ    0.000000   0.467581   0.544652   0.000000  -0.273292
   43  C  3 XY    0.000000  -0.094832   0.245848   0.000000  -0.507586
   44  C  3 XZ   -0.724738   0.000000   0.000000   0.588750   0.000000
   45  C  3 YZ    0.334040   0.000000   0.000000   0.622126   0.000000
   46  H  4  S    0.000000   0.101274   0.196761   0.000000   0.111601
   47  H  4  S    0.000000  -0.182813  -0.033485   0.000000   0.019711
   48  H  5  S    0.000000  -0.061890  -0.521188   0.000000  -0.489633
   49  H  5  S    0.000000  -0.060996  -0.074113   0.000000   0.080103
   50  H  6  S    0.000000   0.129157  -0.390395   0.000000   0.306571
   51  H  6  S    0.000000  -0.037729  -0.011337   0.000000   0.071509
   52  H  7  S   -0.391459  -0.112831  -0.253704   0.471310   0.210435
   53  H  7  S   -0.144109  -0.002875   0.051894  -0.103593   0.001697
   54  H  8  S    0.391459  -0.112831  -0.253704  -0.471310   0.210435
   55  H  8  S    0.144109  -0.002875   0.051894   0.103593   0.001697
   56  H  9  S    0.000000   0.323706   0.301678   0.000000  -0.643364
   57  H  9  S    0.000000   0.036750  -0.057475   0.000000  -0.015440

                     51         52         53         54         55
                    2.4780     2.5332     2.7507     2.8489     4.1163
                     A''        A'         A'         A'         A'  
    1  C  1  S    0.000000  -0.094560   0.034568  -0.060848  -0.308605
    2  C  1  S    0.000000  -0.110102  -0.267774   0.133673   1.999893
    3  C  1  X    0.000000  -0.136129   0.550950  -0.120220  -0.078974
    4  C  1  Y    0.000000  -0.140735  -0.500439  -0.028644   0.071848
    5  C  1  Z    0.050636   0.000000   0.000000   0.000000   0.000000
    6  C  1  S    0.000000   2.736282  -1.280807   1.215439   0.865098
    7  C  1  X    0.000000  -0.667561   0.767810  -0.254771  -0.041878
    8  C  1  Y    0.000000  -0.529950  -1.174160  -0.697889  -0.128218
    9  C  1  Z    0.205259   0.000000   0.000000   0.000000   0.000000
   10  C  1 XX    0.000000   0.314903  -0.678057  -0.708075  -1.156044
   11  C  1 YY    0.000000   0.430826   0.314183   0.861067  -1.135245
   12  C  1 ZZ    0.000000  -0.827436   0.324675  -0.334318  -1.195468
   13  C  1 XY    0.000000   0.257978   0.942540  -0.516182  -0.035967
   14  C  1 XZ   -0.543459   0.000000   0.000000   0.000000   0.000000
   15  C  1 YZ    0.645722   0.000000   0.000000   0.000000   0.000000
   16  C  2  S    0.000000   0.048732  -0.055587   0.013229  -0.321679
   17  C  2  S    0.000000   0.080452   0.262518  -0.115199   2.189680
   18  C  2  X    0.000000  -0.118873   0.561234  -0.209683   0.064338
   19  C  2  Y    0.000000   0.101537  -0.429684   0.049064  -0.059502
   20  C  2  Z   -0.115192   0.000000   0.000000   0.000000   0.000000
   21  C  2  S    0.000000  -1.563301   1.807103  -0.274029   0.838619
   22  C  2  X    0.000000  -0.405079   1.018154   0.174819  -0.049721
   23  C  2  Y    0.000000   0.434862  -0.526596   0.429571   0.195438
   24  C  2  Z   -0.186057   0.000000   0.000000   0.000000   0.000000
   25  C  2 XX    0.000000   0.051196   0.342567  -0.744446  -1.244882
   26  C  2 YY    0.000000  -0.428741   0.153346   0.636874  -1.272820
   27  C  2 ZZ    0.000000   0.485363  -0.449702   0.113382  -1.242791
   28  C  2 XY    0.000000   0.191105  -0.904881  -0.036210  -0.031318
   29  C  2 XZ   -0.593989   0.000000   0.000000   0.000000   0.000000
   30  C  2 YZ    0.363854   0.000000   0.000000   0.000000   0.000000
   31  C  3  S    0.000000   0.057197   0.025539   0.050620  -0.155650
   32  C  3  S    0.000000   0.067190  -0.015338  -0.162982   0.925654
   33  C  3  X    0.000000  -0.009044  -0.005295  -0.033219   0.016980
   34  C  3  Y    0.000000  -0.271697  -0.153447  -0.320971   0.077154
   35  C  3  Z   -0.035707   0.000000   0.000000   0.000000   0.000000
   36  C  3  S    0.000000  -1.574322  -0.642471  -0.999928   0.459169
   37  C  3  X    0.000000  -0.179943  -0.007926  -0.103533  -0.019525
   38  C  3  Y    0.000000  -0.841277  -0.430380  -0.526457  -0.173920
   39  C  3  Z   -0.154064   0.000000   0.000000   0.000000   0.000000
   40  C  3 XX    0.000000   0.156378   0.221585   0.363998  -0.606652
   41  C  3 YY    0.000000  -0.672078  -0.342470  -0.441759  -0.457443
   42  C  3 ZZ    0.000000   0.630863   0.146966   0.232871  -0.619278
   43  C  3 XY    0.000000   0.319512   0.145427  -0.379755   0.037989
   44  C  3 XZ    0.438560   0.000000   0.000000   0.000000   0.000000
   45  C  3 YZ    0.497376   0.000000   0.000000   0.000000   0.000000
   46  H  4  S    0.000000  -0.404306   0.000332   0.368442   0.138733
   47  H  4  S    0.000000   0.230601   0.030788  -0.096335  -0.215673
   48  H  5  S    0.000000   0.046380   0.108781   0.338666   0.148465
   49  H  5  S    0.000000   0.111911   0.121306   0.077321  -0.247179
   50  H  6  S    0.000000   0.312216  -0.051702  -0.349698   0.122979
   51  H  6  S    0.000000  -0.028746   0.050958  -0.008706  -0.351112
   52  H  7  S    0.324911  -0.182617  -0.021542   0.002610   0.068320
   53  H  7  S   -0.082552   0.060148   0.006293  -0.011051  -0.205390
   54  H  8  S   -0.324911  -0.182617  -0.021542   0.002610   0.068320
   55  H  8  S    0.082552   0.060148   0.006293  -0.011051  -0.205390
   56  H  9  S    0.000000   0.244923  -0.005523  -0.155717   0.056978
   57  H  9  S    0.000000   0.021359  -0.111247   0.128317  -0.154559

                     56         57
                    4.2001     4.4014
                     A'         A'  
    1  C  1  S   -0.158096  -0.330488
    2  C  1  S    0.837546   2.014461
    3  C  1  X    0.195719   0.205662
    4  C  1  Y   -0.201507  -0.001005
    5  C  1  Z    0.000000   0.000000
    6  C  1  S    0.804298   2.084706
    7  C  1  X   -0.278267  -0.107595
    8  C  1  Y    0.223907  -0.171166
    9  C  1  Z    0.000000   0.000000
   10  C  1 XX   -0.786136  -1.409605
   11  C  1 YY   -0.495627  -1.643617
   12  C  1 ZZ   -0.575263  -1.223120
   13  C  1 XY    0.163804   0.160940
   14  C  1 XZ    0.000000   0.000000
   15  C  1 YZ    0.000000   0.000000
   16  C  2  S    0.301773   0.173281
   17  C  2  S   -1.785192  -1.032584
   18  C  2  X    0.151565   0.226472
   19  C  2  Y   -0.142716  -0.146020
   20  C  2  Z    0.000000   0.000000
   21  C  2  S   -1.647295  -1.205545
   22  C  2  X   -0.091344  -0.084694
   23  C  2  Y    0.236553   0.087744
   24  C  2  Z    0.000000   0.000000
   25  C  2 XX    1.269285   0.926350
   26  C  2 YY    1.216137   0.760804
   27  C  2 ZZ    1.146812   0.608418
   28  C  2 XY   -0.145617  -0.171385
   29  C  2 XZ    0.000000   0.000000
   30  C  2 YZ    0.000000   0.000000
   31  C  3  S   -0.359897   0.304962
   32  C  3  S    2.044849  -1.781852
   33  C  3  X    0.013078   0.027585
   34  C  3  Y   -0.016743   0.155752
   35  C  3  Z    0.000000   0.000000
   36  C  3  S    1.737729  -2.076061
   37  C  3  X   -0.009338  -0.043444
   38  C  3  Y   -0.030145  -0.188113
   39  C  3  Z    0.000000   0.000000
   40  C  3 XX   -1.350478   1.154106
   41  C  3 YY   -1.322162   1.453196
   42  C  3 ZZ   -1.391446   1.114121
   43  C  3 XY    0.011741   0.045047
   44  C  3 XZ    0.000000   0.000000
   45  C  3 YZ    0.000000   0.000000
   46  H  4  S    0.081196   0.079011
   47  H  4  S   -0.100786  -0.330822
   48  H  5  S   -0.062556  -0.072562
   49  H  5  S    0.332781   0.229485
   50  H  6  S   -0.100207  -0.049528
   51  H  6  S    0.216971   0.209908
   52  H  7  S    0.093513  -0.027390
   53  H  7  S   -0.392768   0.288014
   54  H  8  S    0.093513  -0.027390
   55  H  8  S   -0.392768   0.288014
   56  H  9  S    0.085582  -0.045432
   57  H  9  S   -0.348090   0.362076
 ...... END OF RHF CALCULATION ......
 STEP CPU TIME =     6.36 TOTAL CPU TIME =          6.4 (      0.1 MIN)
 TOTAL WALL CLOCK TIME=          7.0 SECONDS, CPU UTILIZATION IS    91.69%

     ---------------------------------------------------------------------
     PROPERTIES FOR THE B3LYP    DFT FUNCTIONAL (RHF  TYPE) DENSITY MATRIX
     ---------------------------------------------------------------------

          -----------------
          ENERGY COMPONENTS
          -----------------

         WAVEFUNCTION NORMALIZATION =       1.0000000000

                ONE ELECTRON ENERGY =    -297.2017360336
                TWO ELECTRON ENERGY =     108.5212367504
           NUCLEAR REPULSION ENERGY =      70.8647410352
                                      ------------------
                       TOTAL ENERGY =    -117.8157582480

 ELECTRON-ELECTRON POTENTIAL ENERGY =     108.5212367504
  NUCLEUS-ELECTRON POTENTIAL ENERGY =    -413.9347710163
   NUCLEUS-NUCLEUS POTENTIAL ENERGY =      70.8647410352
                                      ------------------
             TOTAL POTENTIAL ENERGY =    -234.5487932307
               TOTAL KINETIC ENERGY =     116.7330349827
                 VIRIAL RATIO (V/T) =       2.0092752087

          ---------------------------------------
          MULLIKEN AND LOWDIN POPULATION ANALYSES
          ---------------------------------------

     ATOMIC MULLIKEN POPULATION IN EACH MOLECULAR ORBITAL

                      1          2          3          4          5

                  2.000000   2.000000   2.000000   2.000000   2.000000

    1             1.995349   0.001518   0.002943   0.755370   0.271927
    2             0.002949   0.000034   1.996226   0.477920   0.578635
    3             0.001325   1.996840   0.000008   0.550670   0.704271
    4             0.000359  -0.000002  -0.000001   0.049298   0.003665
    5            -0.000014   0.000001   0.000418   0.029894   0.060453
    6             0.000009  -0.000000   0.000406   0.024473   0.086889
    7             0.000014   0.000533   0.000000   0.036748   0.091415
    8             0.000014   0.000533   0.000000   0.036748   0.091415
    9            -0.000004   0.000543   0.000000   0.038879   0.111330

                      6          7          8          9         10

                  2.000000   2.000000   2.000000   2.000000   2.000000

    1             0.590549   0.388754   0.379759   0.158743   0.282100
    2             0.472029   0.576219   0.573850   0.035042   0.320794
    3             0.240911   0.377704   0.459767   1.029494   0.637318
    4             0.285349   0.136893   0.011006   0.000000   0.071555
    5             0.197178   0.017741   0.327318   0.000000   0.004386
    6             0.084012   0.320534   0.014076   0.000000   0.126242
    7             0.058279   0.000494   0.095547   0.388360   0.047590
    8             0.058279   0.000494   0.095547   0.388360   0.047590
    9             0.013414   0.181167   0.043131   0.000000   0.462425

                     11         12

                  2.000000   2.000000

    1             0.421933   0.818948
    2             0.285059   1.005278
    3             0.422109   0.062351
[...]
               TOTAL  0.03081822  0.65830206  0.09659929  0.20405722 12.65075779

                            6           7           8           9          10
       FREQUENCY:         6.75       13.57      415.12      590.18      924.50  
        SYMMETRY:         A'          A''         A'          A''         A'  
    REDUCED MASS:      2.58902     1.57532     1.98828     1.30887     2.03974
    IR INTENSITY:      0.00193     0.00046     0.01019     0.27326     0.01095

  1   C            X -0.03194572  0.00003591  0.12603337  0.00000439 -0.03385491
                   Y  0.04815056  0.00004430  0.05529263  0.00000194 -0.09343589
                   Z -0.00017214 -0.12478828  0.00000571 -0.13807777 -0.00000185
  2   C            X -0.13510010  0.00001721  0.00189434  0.00000234  0.00614967
                   Y -0.08504726  0.00002016 -0.11755925 -0.00000190 -0.11305980
                   Z  0.00042789 -0.01729302 -0.00000326  0.04013306  0.00001282
  3   C            X  0.15880518  0.00007048 -0.07928316  0.00000005  0.01347857
                   Y  0.03894767  0.00004262  0.07621990  0.00000557  0.15213693
                   Z -0.00041444  0.13000470 -0.00000033  0.01574562 -0.00000384
  4   H            X -0.08746067  0.00002585  0.11804160  0.00000413 -0.09383252
                   Y  0.17424362  0.00006718  0.06630248  0.00000293  0.02985981
                   Z -0.00051977 -0.41741174  0.00000065  0.31367019  0.00000704
  5   H            X -0.08730124  0.00002587  0.10162380  0.00000523 -0.13300441
                   Y -0.21407259 -0.00000322 -0.39039116 -0.00000981  0.27896639
                   Z  0.00079708  0.27112103 -0.00000121 -0.33610059 -0.00003911
  6   H            X -0.27168471 -0.00000752 -0.28187775 -0.00000547  0.46770006
                   Y -0.07053142  0.00002280 -0.08923142 -0.00000119 -0.16480202
                   Z  0.00057497 -0.21352061 -0.00001112  0.59227633 -0.00006720
  7   H            X  0.20673804  0.19825341 -0.16771197 -0.01580764 -0.02812632
                   Y -0.02829592  0.13936973  0.19787589  0.24609179  0.20165444
                   Z -0.00025911  0.30886699 -0.00188437  0.11192165 -0.00505249
  8   H            X  0.20595408 -0.19809509 -0.16774509  0.01580223 -0.02812605
                   Y -0.02797463 -0.13930875  0.19789941 -0.24607315  0.20162668
                   Z -0.00023467  0.30886691  0.00189305  0.11192183  0.00505724
  9   H            X  0.21568862  0.00008081 -0.18161010 -0.00000294 -0.01523012
                   Y  0.16485129  0.00006548 -0.14843390 -0.00000086  0.09970103
                   Z -0.00093911 -0.02270885 -0.00002805  0.18516750  0.00001059

 TRANS. SAYVETZ    X  0.08447001  0.00176881 -0.00007775  0.00007689 -0.00001398
                   Y  0.02281796  0.00149997  0.00016183  0.00007710 -0.00023603
                   Z -0.00248932  0.09213499 -0.00000577  0.00012736  0.00000093
               TOTAL  0.08753307  0.09216417  0.00017963  0.00016756  0.00023645

   ROT. SAYVETZ    X  0.02899279 -8.22808126  0.00002057  0.00190029 -0.00000334
                   Y  0.01888778  2.63740580  0.00001486 -0.00074681 -0.00000234
                   Z 14.96267708  0.00271232 -0.00529595  0.00001544 -0.00125863
               TOTAL 14.96271709  8.64044200  0.00529601  0.00204183  0.00125864

                           11          12          13          14          15
       FREQUENCY:       931.73      980.98     1023.49     1066.33     1184.29  
        SYMMETRY:         A''         A'          A''         A''         A'  
    REDUCED MASS:      1.33235     1.32820     1.05235     1.48023     1.73214
    IR INTENSITY:      0.72805     0.01378     0.40315     0.00279     0.14061

  1   C            X -0.00000310 -0.02700399  0.00000073 -0.00000013  0.08936842
                   Y -0.00000818 -0.04939196  0.00000148  0.00000016  0.10595458
                   Z  0.03627852  0.00000130 -0.02707160  0.12360070  0.00000149
  2   C            X -0.00000039  0.06324681 -0.00000016  0.00000065 -0.02797289
                   Y -0.00001058 -0.00614039  0.00000251  0.00000258 -0.07282421
                   Z -0.14308569 -0.00000148 -0.01100278 -0.02245209 -0.00000015
  3   C            X  0.00000147 -0.08557956  0.00000264  0.00000263 -0.10069679
                   Y  0.00001265  0.08610177 -0.00000226 -0.00000074 -0.05102096
                   Z  0.01921914 -0.00000208 -0.05472990 -0.11511934 -0.00000256
  4   H            X -0.00000950  0.08620063 -0.00000017  0.00000006 -0.01624252
                   Y  0.00000495 -0.31208393  0.00000435  0.00000055  0.35099426
                   Z -0.06068532  0.00000602  0.66449738 -0.34699724  0.00000509
  5   H            X -0.00001466  0.15951088  0.00000194  0.00000385 -0.13457760
                   Y  0.00002952 -0.26593697 -0.00000366 -0.00000667  0.23809798
                   Z  0.54451507  0.00001547  0.54162764 -0.04984248  0.00000011
  6   H            X  0.00004590 -0.15901549 -0.00000823 -0.00001007  0.30340837
                   Y -0.00001568  0.01243404  0.00000342  0.00000369 -0.10339113
                   Z  0.64122954 -0.00000260 -0.32165927  0.05406261 -0.00000168
  7   H            X -0.01070006  0.17889811  0.02780316  0.08324491  0.13640844
                   Y -0.08497893 -0.19217367  0.21098053  0.45448415 -0.25861659
                   Z -0.02305907  0.03918195  0.05920796  0.13474183  0.05305644
  8   H            X  0.01069322  0.17889809 -0.02781212 -0.08325298  0.13640168
                   Y  0.08501555 -0.19218773 -0.21097061 -0.45447270 -0.25864244
                   Z -0.02305781 -0.03917942  0.05921027  0.13474425 -0.05304699
  9   H            X -0.00000209  0.14297343 -0.00000326 -0.00000247  0.04256497
                   Y  0.00000575  0.58577372 -0.00001509 -0.00001174  0.24461468
                   Z -0.03600164  0.00000585  0.10218391  0.23968524  0.00000059

 TRANS. SAYVETZ    X -0.00001139  0.00002155  0.00001962  0.00002103  0.00001008
                   Y -0.00001159 -0.00019120  0.00001975  0.00002129  0.00003686
                   Z  0.00004539  0.00000038  0.00006368  0.00004749 -0.00000093
               TOTAL  0.00004822  0.00019242  0.00006950  0.00005613  0.00003822

   ROT. SAYVETZ    X -0.00117689 -0.00000176  0.00032931 -0.00044635  0.00000309
                   Y  0.00052966 -0.00000129 -0.00120575 -0.00014265  0.00000180
                   Z -0.00000224  0.00032917  0.00000369  0.00000400 -0.00000156
               TOTAL  0.00129059  0.00032918  0.00124992  0.00046861  0.00000391

                           16          17          18          19          20
       FREQUENCY:      1343.74     1432.88     1471.10     1520.66     1522.37  
        SYMMETRY:         A'          A'          A'          A'          A'' 
    REDUCED MASS:      1.24569     1.18316     1.22220     1.05043     1.04419
    IR INTENSITY:      0.01497     0.02194     0.04186     0.10975     0.12207

  1   C            X -0.07241979  0.02863996 -0.05184279 -0.01066092  0.00000189
                   Y -0.03684890 -0.02125927  0.09255717 -0.01610534  0.00000303
                   Z -0.00000029  0.00000005  0.00000013 -0.00000172 -0.01630471
  2   C            X  0.10055884 -0.00357253 -0.03324610 -0.01056628  0.00000055
                   Y  0.01030690 -0.00127136  0.00362439  0.01644266 -0.00000182
                   Z  0.00000002 -0.00000000 -0.00000001  0.00000020  0.00191341
  3   C            X -0.01400008 -0.02283432  0.01184149 -0.04726860  0.00000480
                   Y -0.01882845 -0.10804544 -0.05868280  0.02646027 -0.00000331
                   Z  0.00000043 -0.00000001  0.00000011 -0.00000561 -0.05384352
  4   H            X -0.39421598  0.02281451  0.09436738 -0.00902472  0.00000338
                   Y  0.68724429  0.00404016 -0.24204756 -0.02186802  0.00000055
                   Z -0.00000212  0.00000012  0.00000062 -0.00000001  0.00391530
  5   H            X  0.22403210 -0.08768929  0.17121383  0.02094116 -0.00000237
                   Y -0.31133585  0.19833325 -0.49973628 -0.06726677  0.00000614
                   Z  0.00000062 -0.00000004 -0.00000022 -0.00000027 -0.00462710
  6   H            X  0.01684179 -0.19902701  0.62012578  0.03886149 -0.00000091
                   Y  0.00866385  0.02773652 -0.08220156  0.01085314 -0.00000163
                   Z  0.00000018 -0.00000005 -0.00000003  0.00000103  0.00998388
  7   H            X -0.01653448  0.01760521 -0.04309544  0.49200437  0.35182894
                   Y  0.04627892  0.45584746  0.14724033  0.08374298 -0.31867072
                   Z  0.02325996  0.24089154  0.05060307  0.33781758  0.04838906
  8   H            X -0.01653363  0.01760576 -0.04309296  0.49193120 -0.35193159
                   Y  0.04628696  0.45584633  0.14723571  0.08381049  0.31865403
                   Z -0.02326253 -0.24089153 -0.05060281 -0.33780797  0.04845864
  9   H            X  0.01804992  0.20215567  0.07265553 -0.21917154  0.00002353
                   Y  0.06300587  0.41307353  0.08313950 -0.40838899  0.00004381
                   Z  0.00000227 -0.00000085 -0.00000356  0.00007408  0.70636421

 TRANS. SAYVETZ    X -0.00001003  0.00005452  0.00003010 -0.00002605  0.00000728
                   Y -0.00007476  0.00013135  0.00012243 -0.00004324  0.00000717
                   Z  0.00000032 -0.00000046 -0.00000021 -0.00000052  0.00002391
               TOTAL  0.00007543  0.00014222  0.00012608  0.00005048  0.00002601

   ROT. SAYVETZ    X -0.00000060  0.00000131  0.00000075  0.00000123 -0.00026113
                   Y -0.00000057  0.00000035  0.00000027  0.00000027 -0.00028020
                   Z -0.00079832 -0.00023210  0.00063263  0.00062212  0.00000177
               TOTAL  0.00079832  0.00023210  0.00063263  0.00062212  0.00038302

                           21          22          23          24          25
       FREQUENCY:      1729.94     3042.77     3094.36     3119.10     3146.77  
        SYMMETRY:         A'          A'          A''         A'          A'  
    REDUCED MASS:      4.34661     1.03757     1.10101     1.09890     1.06331
    IR INTENSITY:      0.19022     0.52894     0.52679     0.34918     0.65239

  1   C            X -0.13356697 -0.00063233 -0.00000028  0.01970989 -0.03339164
                   Y  0.14236867  0.00051098 -0.00000000  0.00726192 -0.01980613
                   Z  0.00000000  0.00000000 -0.00024315 -0.00000000 -0.00000000
  2   C            X  0.13605625  0.00085225  0.00000003  0.00219924 -0.04600526
                   Y -0.11258618 -0.00044980  0.00000001 -0.00297333  0.02837183
                   Z -0.00000000  0.00000000  0.00041896  0.00000000  0.00000000
  3   C            X  0.01180591 -0.01778774  0.00000027 -0.08318196 -0.01767128
                   Y -0.02109240 -0.04785167 -0.00000004  0.01286473  0.00247523
                   Z -0.00000003 -0.00000002 -0.08774420 -0.00000041  0.00000023
  4   H            X -0.01277359  0.00932579  0.00000496 -0.23363814  0.43815752
                   Y -0.18702397  0.00252708  0.00000214 -0.10095449  0.19397030
                   Z  0.00000009 -0.00000001 -0.00436691  0.00000007 -0.00000014
  5   H            X  0.02457292 -0.01507500 -0.00000012 -0.03772468  0.57797756
                   Y  0.24811909 -0.00725620 -0.00000001 -0.01677262  0.22420629
                   Z -0.00000002  0.00000000 -0.00278471 -0.00000006  0.00000009
  6   H            X -0.20038293  0.00371133 -0.00000003  0.00796353 -0.06985746
                   Y -0.09578232  0.01350016 -0.00000038  0.05920972 -0.52974170
                   Z  0.00000000 -0.00000000  0.00093334  0.00000002 -0.00000004
  7   H            X  0.02043730  0.30162223 -0.33666762  0.11846459  0.02866746
                   Y  0.01757701  0.19852456 -0.22510498  0.09364762  0.02355609
                   Z  0.01936115 -0.50967193  0.53482360 -0.22835509 -0.05421864
  8   H            X  0.02043698  0.30162241  0.33666667  0.11846743  0.02866630
                   Y  0.01757697  0.19852467  0.22510423  0.09364957  0.02355526
                   Z -0.01936106  0.50967221  0.53482177  0.22836000  0.05421606
  9   H            X -0.02256436 -0.39200679 -0.00000236  0.75603758  0.15215955
                   Y -0.10409871  0.16321603  0.00000101 -0.33303860 -0.06699441
                   Z  0.00000013 -0.00000001 -0.02073036 -0.00000007  0.00000002

 TRANS. SAYVETZ    X -0.00006377  0.00002323  0.00000174  0.00000528 -0.00000333
                   Y -0.00016180  0.00000313  0.00000167 -0.00001727  0.00001447
                   Z -0.00000007  0.00000000  0.00003520 -0.00000000  0.00000004
               TOTAL  0.00017391  0.00002344  0.00003528  0.00001805  0.00001485

   ROT. SAYVETZ    X  0.00000009  0.00000003 -0.00005699 -0.00000004 -0.00000012
                   Y  0.00000013  0.00000001 -0.00000487  0.00000001 -0.00000009
                   Z -0.00001293 -0.00014459  0.00000022  0.00035256  0.00021819
               TOTAL  0.00001293  0.00014459  0.00005720  0.00035256  0.00021819

                           26          27
       FREQUENCY:      3154.39     3229.39  
        SYMMETRY:         A'          A'  
    REDUCED MASS:      1.08923     1.11499
    IR INTENSITY:      0.21633     0.56032

  1   C            X -0.06548916 -0.01231782
                   Y -0.02148621 -0.00444846
                   Z -0.00000001 -0.00000000
  2   C            X  0.04128331 -0.04737048
                   Y -0.00855788 -0.07953992
                   Z  0.00000000  0.00000000
  3   C            X -0.01580554 -0.00072066
                   Y  0.00460204  0.00096201
                   Z  0.00000039  0.00000004
  4   H            X  0.70966235  0.12108283
                   Y  0.30900267  0.05220736
                   Z -0.00000021 -0.00000005
  5   H            X -0.45260273  0.51000801
                   Y -0.17143450  0.18070893
                   Z  0.00000014  0.00000002
  6   H            X  0.02958165  0.07774268
                   Y  0.21085397  0.75615249
                   Z -0.00000006 -0.00000001
  7   H            X  0.01779695 -0.00015949
                   Y  0.01365918  0.00254545
                   Z -0.03550920 -0.00181491
  8   H            X  0.01779492 -0.00015963
                   Y  0.01365773  0.00254535
                   Z  0.03550474  0.00181448
  9   H            X  0.15418090  0.01077455
                   Y -0.07283085 -0.00560111
                   Z  0.00000003  0.00000000

 TRANS. SAYVETZ    X  0.00000524  0.00000992
                   Y -0.00002607 -0.00002250
                   Z  0.00000004  0.00000001
               TOTAL  0.00002660  0.00002459

   ROT. SAYVETZ    X -0.00000011 -0.00000002
                   Y -0.00000023 -0.00000001
                   Z -0.00013155 -0.00017933
               TOTAL  0.00013155  0.00017933

 REFERENCE ON SAYVETZ CONDITIONS - A. SAYVETZ, J.CHEM.PHYS., 7, 383-389(1939).

 NOTE - THE MODES J,K ARE ORTHONORMALIZED ACCORDING TO
 SUM ON I   M(I) * (X(I,J)*X(I,K) + Y(I,J)*Y(I,K) + Z(I,J)*Z(I,K)) = DELTA(J,K)

  MODE FREQ(CM**-1)  SYMMETRY  RED. MASS  IR INTENS.
     1     219.405    A''      1.096779    0.012924
     2       0.529    A''      4.649785    0.000005
     3       0.066    A'       4.676593    0.000000
     4       0.417    A''      4.678259    0.000000
     5       4.231    A''      2.338551    0.001646
     6       6.754    A'       2.589015    0.001933
     7      13.573    A''      1.575317    0.000455
     8     415.122    A'       1.988280    0.010188
     9     590.185    A''      1.308865    0.273261
    10     924.501    A'       2.039738    0.010951
    11     931.728    A''      1.332354    0.728051
    12     980.985    A'       1.328205    0.013782
    13    1023.493    A''      1.052352    0.403151
    14    1066.331    A''      1.480231    0.002787
    15    1184.286    A'       1.732144    0.140614
    16    1343.736    A'       1.245687    0.014966
    17    1432.878    A'       1.183163    0.021936
    18    1471.102    A'       1.222199    0.041856
    19    1520.659    A'       1.050426    0.109754
    20    1522.371    A''      1.044194    0.122066
    21    1729.935    A'       4.346608    0.190217
    22    3042.772    A'       1.037567    0.528937
    23    3094.357    A''      1.101005    0.526790
    24    3119.103    A'       1.098898    0.349183
    25    3146.768    A'       1.063310    0.652394
    26    3154.388    A'       1.089230    0.216329
    27    3229.395    A'       1.114987    0.560321

     -------------------------------
     THERMOCHEMISTRY AT T=  298.15 K
     -------------------------------

 USING IDEAL GAS, RIGID ROTOR, HARMONIC NORMAL MODE APPROXIMATIONS.
 P=  1.01325E+05 PASCAL.
 ALL FREQUENCIES ARE SCALED BY   1.00000
 THE MOMENTS OF INERTIA ARE (IN AMU*BOHR**2)
             38.84507           196.29793           223.92413
 THE ROTATIONAL SYMMETRY NUMBER IS  1.0
 THE ROTATIONAL CONSTANTS ARE (IN GHZ)
     46.41743     9.18547     8.05223
   1 IMAGINARY FREQUENCY VIBRATION(S) IS(ARE) EXCLUDED
     FROM THE FOLLOWING THERMOCHEMICAL ANALYSIS.
      8 -     27 VIBRATIONAL MODES ARE USED IN THERMOCHEMISTRY.
 THE HARMONIC ZERO POINT ENERGY IS (SCALED BY   1.000)
        0.079563 HARTREE/MOLECULE    17462.046628 CM**-1/MOLECULE 
       49.926547 KCAL/MOL              208.892672 KJ/MOL

               Q               LN Q
 ELEC.     1.00000E+00       0.000000
 TRANS.    1.07166E+07      16.187301
 ROT.      1.47917E+04       9.601821
 VIB.      1.29366E+00       0.257477
 TOT.      2.05066E+11      26.046598

              E         H         G         CV        CP        S
           KJ/MOL    KJ/MOL    KJ/MOL   J/MOL-K   J/MOL-K   J/MOL-K
 ELEC.      0.000     0.000     0.000     0.000     0.000     0.000
 TRANS.     3.718     6.197   -40.127    12.472    20.786   155.374
 ROT.       3.718     3.718   -23.802    12.472    12.472    92.305
 VIB.     210.755   210.755   208.254    21.629    21.629     8.387
 TOTAL    218.192   220.671   144.325    46.573    54.887   256.066
 VIB. THERMAL CORRECTION E(T)-E(0) = H(T)-H(0) =      1862.264 J/MOL

              E         H         G         CV        CP        S
         KCAL/MOL  KCAL/MOL  KCAL/MOL CAL/MOL-K CAL/MOL-K CAL/MOL-K
 ELEC.      0.000     0.000     0.000     0.000     0.000     0.000
 TRANS.     0.889     1.481    -9.591     2.981     4.968    37.135
 ROT.       0.889     0.889    -5.689     2.981     2.981    22.061
 VIB.      50.372    50.372    49.774     5.170     5.170     2.005
 TOTAL     52.149    52.742    34.494    11.131    13.118    61.201
 VIB. THERMAL CORRECTION E(T)-E(0) = H(T)-H(0) =       445.092 CAL/MOL
 ......END OF NORMAL COORDINATE ANALYSIS......
 STEP CPU TIME =     0.00 TOTAL CPU TIME =        459.3 (      7.7 MIN)
 TOTAL WALL CLOCK TIME=        534.0 SECONDS, CPU UTILIZATION IS    86.00%
               1075896  WORDS OF DYNAMIC MEMORY USED
 EXECUTION OF GAMESS TERMINATED NORMALLY Tue Oct  4 20:55:08 2022
 DDI: 263640 bytes (0.3 MB / 0 MWords) used by master data server.

 ----------------------------------------
 CPU timing information for all processes
 ========================================
 0: 455.533 + 3.775 = 459.308
 ----------------------------------------
 ddikick.x: exited gracefully.
----- accounting info -----
Files used on the master node chemcompute-node-1.novalocal were:
-rw-r--r--. 1 chemcomp chemcomp      950 Oct  4 20:46 /scratch/120777/460731.F05
-rw-rw-r--. 1 chemcomp chemcomp 65536000 Oct  4 20:55 /scratch/120777/460731.F10
-rw-rw-r--. 1 chemcomp chemcomp  4614952 Oct  4 20:54 /scratch/120777/460731.F22
Tue Oct  4 20:55:11 UTC 2022
0.100u 0.043s 8:57.51 0.0%	0+0k 8+208io 0pf+0w
Finishing Up...
Looking for IR data...
Looking for Raman data...
vibramans not found
Looking for thermodynamics data...
Looking for UV-Vis data...
chemcompute.org
{'UTCtimestamp': '2022-10-04T20:55:13.096750', 'cluster': 'jetstream2', 'clusterJobNumber': '120777', 'status': 'COMPLETE', 'nodeList': 'chemcompute-node-1'}
120777
